 Gaussian 16, Revision A.03,
 Gaussian 16:  ES64L-G16RevA.03 25-Dec-2016

 ----------------
 #p B3LYP/cc-pVDZ
 ----------------

 ---------------------------------------
 2,7-dicl-dibenzene SP RKS B3LYP cc-pVDZ
 ---------------------------------------
 Symbolic Z-matrix:
 Charge =  0 Multiplicity = 1

                         Standard orientation:
 ---------------------------------------------------------------------
 Center     Atomic      Atomic             Coordinates (Angstroms)
 Number     Number       Type             X           Y           Z
 ---------------------------------------------------------------------
      1          6           0        2.244851    2.071295    0.751392
      2          6           0        3.304207    1.300888    0.295737
      3          6           0        3.045185    0.017738   -0.158120
      4          6           0        1.759769   -0.498571   -0.162997
      5          6           0        0.693974    0.275570    0.295604
      6          6           0        0.952908    1.567889    0.752876
      7          1           0        2.431824    3.072719    1.115696
      8          1           0        4.313802    1.684902    0.291253
      9          1           0        1.591308   -1.495485   -0.542306
     10          1           0        0.143223    2.177007    1.130202
     11          6           0       -0.693966   -0.275587    0.295567
     12          6           0       -1.759785    0.498546   -0.163005
     13          6           0       -0.952881   -1.567887    0.752886
     14          6           0       -3.045206   -0.017708   -0.158130
     15          1           0       -1.591168    1.495446   -0.542292
     16          6           0       -2.244844   -2.071272    0.751396
     17          1           0       -0.143236   -2.177042    1.130233
     18          6           0       -3.304192   -1.300884    0.295735
     19          1           0       -2.431844   -3.072681    1.115730
     20          1           0       -4.313786   -1.684904    0.291264
     21         17           0        4.357579   -0.965630   -0.743634
     22         17           0       -4.357593    0.965627   -0.743627
 ---------------------------------------------------------------------

 SCF Done:  E(RB3LYP) =  -1382.56635745     A.U. after   14 cycles

 The electronic state is 1-A.
 Alpha  occ. eigenvalues -- -101.54729-101.54728 -10.25401 -10.25401 -10.21679
 Alpha  occ. eigenvalues --  -10.21656 -10.20655 -10.20655 -10.20614 -10.20614
 Alpha  occ. eigenvalues --  -10.20592 -10.20591 -10.20214 -10.20214  -9.46585
 Alpha  occ. eigenvalues --   -9.46584  -7.22834  -7.22834  -7.21873  -7.21873
 Alpha  occ. eigenvalues --   -7.21833  -7.21833  -0.90819  -0.90029  -0.85958
 Alpha  occ. eigenvalues --   -0.84050  -0.79271  -0.75954  -0.74350  -0.73760
 Alpha  occ. eigenvalues --   -0.64968  -0.63049  -0.60608  -0.59058  -0.54069
 Alpha  occ. eigenvalues --   -0.51740  -0.49428  -0.48180  -0.47087  -0.45754
 Alpha  occ. eigenvalues --   -0.44174  -0.44091  -0.43670  -0.41017  -0.40214
 Alpha  occ. eigenvalues --   -0.39120  -0.37726  -0.36523  -0.36165  -0.34714
 Alpha  occ. eigenvalues --   -0.33552  -0.31785  -0.31495  -0.28940  -0.26163
 Alpha  occ. eigenvalues --   -0.25688  -0.24547
 Alpha virt. eigenvalues --   -0.04624  -0.02359  -0.02317   0.00290   0.02931
 Alpha virt. eigenvalues --    0.03354   0.07389   0.07779   0.09996   0.10664
 Alpha virt. eigenvalues --    0.11879   0.12374   0.12756   0.13956   0.14840

 Mulliken charges:
               1
     1  C    0.054641
     2  C    0.126323
     3  C   -0.146649
     4  C    0.134769
     5  C    0.008080
     6  C    0.035226
     7  H   -0.023921
     8  H   -0.027103
     9  H   -0.035528
    10  H   -0.039834
    11  C    0.008070
    12  C    0.134769
    13  C    0.035230
    14  C   -0.146631
    15  H   -0.035530
    16  C    0.054636
    17  H   -0.039833
    18  C    0.126314
    19  H   -0.023923
    20  H   -0.027106
    21  Cl  -0.086007
    22  Cl  -0.085992
 Sum of Mulliken charges =  -0.00000

 Dipole moment (field-independent basis, Debye):
    X=             -0.0001    Y=              0.0001    Z=              1.1071  Tot=              1.1071
 Quadrupole moment (field-independent basis, Debye-Ang):
   XX=            -99.6368   YY=            -85.8151   ZZ=            -96.7822
   XY=              8.0792   XZ=              0.0002   YZ=             -0.0001

 Normal termination of Gaussian 16 at Wed May  4 12:29:35 2022.
