                         Program Version 5.0.0 -  RELEASE  -
|  1> !UKS B3LYP def2-TZVP Slowconv NoTrah NoRI VeryTightSCF
|  2> !MORead
|  3>
|  4> %pal
|  5>     nprocs  16
|  6> end
|  7>
|  8> %moinp  "RC-highspin.gbw"
|  9>
| 10> %scf
| 11>     Flipspin        45
| 12>     FinalMs         0.5
| 13>     MaxIter         500
| 14> end
| 15>
| 16> *xyz +1 12
| 17>  C		41.75403		53.28594		36.47089
| 18>  N		42.78753		53.11575		35.57581
| 19>  H		43.16994		53.82901		34.93449
| 20>  C		43.13114		51.81325		35.56784
| 21>  H		43.90950		51.37773		34.94414
| 22>  N		42.37607		51.13571		36.42691
| 23>  C		41.50665		52.03904		37.00144
| 24>  H		40.82544		51.73164		37.79505
| 25>  C		40.09202		47.27196		33.79593
| 26>  N		40.01563		48.58847		33.38565
| 27>  H		39.43866		49.00474		32.64677
| 28>  C		40.81932		49.32188		34.18498
| 29>  H		40.95055		50.39694		34.07925
| 30>  N		41.40562		48.54888		35.08628
| 31>  C		40.96397		47.26826		34.85989
| 32>  H		41.28483		46.44894		35.49587
| 33>  C		38.24865		48.45183		37.81335
| 34>  H		38.06635		49.38048		37.25970
| 35>  H		37.98920		48.64643		38.86583
| 36>  C		39.73354		48.12878		37.79602
| 37>  O		40.09424		46.93213		38.07281
| 38>  O		40.52803		49.07737		37.61504
| 39>  C		38.64939		43.85153		40.73232
| 40>  N		39.75318		43.46223		41.46909
| 41>  H		39.79405		42.88321		42.31374
| 42>  C		40.85619		43.95040		40.87085
| 43>  H		41.86208		43.73437		41.21668
| 44>  N		40.53337		44.65182		39.79100
| 45>  C		39.15956		44.58428		39.68656
| 46>  H		38.64310		45.07085		38.86947
| 47>  C		42.78301		43.20389		35.50791
| 48>  N		41.70402		42.56435		36.07633
| 49>  H		41.38662		41.60923		35.87328
| 50>  C		41.22751		43.34662		37.06020
| 51>  H		40.41347		43.06024		37.71905
| 52>  N		41.93585		44.46949		37.14463
| 53>  C		42.92016		44.39135		36.18173
| 54>  H		43.65411		45.17925		36.03284
| 55>  C		45.76587		48.09327		34.01347
| 56>  H		45.12996		47.64758		33.22625
| 57>  H		46.66030		47.46138		34.10695
| 58>  C		44.95577		48.01686		35.29973
| 59>  O		44.14613		48.94934		35.56215
| 60>  O		45.08740		46.97457		36.01411
| 61>  Fe		42.54033		49.05049		36.87039
| 62>  Fe		41.81627		46.03465		38.62397
| 63>  O		42.83867		47.18229		37.39246
| 64>  H		43.73492		46.94286		37.02348
| 65>  C		43.49167		47.06037		40.65787
| 66>  C		43.62987		47.67506		42.05581
| 67>  C		45.10300		47.59033		42.50474
| 68>  C		45.62301		46.15243		42.46240
| 69>  C		45.40189		45.47910		41.08480
| 70>  C		43.92995		45.59891		40.70191
| 71>  O		42.19103		47.12374		40.15874
| 72>  O		42.77905		47.01209		42.97498
| 73>  O		45.28716		48.11554		43.80319
| 74>  O		46.99767		46.17794		42.81101
| 75>  O		45.74511		44.11656		41.09014
| 76>  O		43.60430		45.05282		39.42323
| 77>  H		44.17197		47.60667		39.96927
| 78>  H		43.37341		48.74685		41.99147
| 79>  H		45.70505		48.16527		41.77049
| 80>  H		45.03923		45.57203		43.19495
| 81>  H		46.01899		46.03720		40.34589
| 82>  H		43.33990		45.09204		41.48188
| 83>  H		42.10859		47.68790		43.28977
| 84>  H		45.23130		49.11516		43.72228
| 85>  H		47.38229		45.25422		42.73309
| 86>  H		46.61333		43.98248		41.55557
| 87>  H		43.51869		44.03919		39.45235
| 88>  O		42.87964		49.71258		38.89705
| 89>  O		44.05578		49.61518		38.40447
| 90>  H		41.30382		54.25088		36.70388
| 91>  H		39.55092		46.42585		33.37239
| 92>  H		37.60102		47.66437		37.42791
| 93>  H		37.60539		43.64548		40.96829
| 94>  H		43.42804		42.77098		34.74333
| 95>  H		46.04434		49.08634		33.66087
| 96> *
| 97>
| 98>
| 99>                          ****END OF INPUT****

CARTESIAN COORDINATES (ANGSTROEM)
---------------------------------
  C     41.754030   53.285940   36.470890
  N     42.787530   53.115750   35.575810
  H     43.169940   53.829010   34.934490
  C     43.131140   51.813250   35.567840
  H     43.909500   51.377730   34.944140
  N     42.376070   51.135710   36.426910
  C     41.506650   52.039040   37.001440
  H     40.825440   51.731640   37.795050
  C     40.092020   47.271960   33.795930
  N     40.015630   48.588470   33.385650
  H     39.438660   49.004740   32.646770
  C     40.819320   49.321880   34.184980
  H     40.950550   50.396940   34.079250
  N     41.405620   48.548880   35.086280
  C     40.963970   47.268260   34.859890
  H     41.284830   46.448940   35.495870
  C     38.248650   48.451830   37.813350
  H     38.066350   49.380480   37.259700
  H     37.989200   48.646430   38.865830
  C     39.733540   48.128780   37.796020
  O     40.094240   46.932130   38.072810
  O     40.528030   49.077370   37.615040
  C     38.649390   43.851530   40.732320
  N     39.753180   43.462230   41.469090
  H     39.794050   42.883210   42.313740
  C     40.856190   43.950400   40.870850
  H     41.862080   43.734370   41.216680
  N     40.533370   44.651820   39.791000
  C     39.159560   44.584280   39.686560
  H     38.643100   45.070850   38.869470
  C     42.783010   43.203890   35.507910
  N     41.704020   42.564350   36.076330
  H     41.386620   41.609230   35.873280
  C     41.227510   43.346620   37.060200
  H     40.413470   43.060240   37.719050
  N     41.935850   44.469490   37.144630
  C     42.920160   44.391350   36.181730
  H     43.654110   45.179250   36.032840
  C     45.765870   48.093270   34.013470
  H     45.129960   47.647580   33.226250
  H     46.660300   47.461380   34.106950
  C     44.955770   48.016860   35.299730
  O     44.146130   48.949340   35.562150
  O     45.087400   46.974570   36.014110
  Fe    42.540330   49.050490   36.870390
  Fe    41.816270   46.034650   38.623970
  O     42.838670   47.182290   37.392460
  H     43.734920   46.942860   37.023480
  C     43.491670   47.060370   40.657870
  C     43.629870   47.675060   42.055810
  C     45.103000   47.590330   42.504740
  C     45.623010   46.152430   42.462400
  C     45.401890   45.479100   41.084800
  C     43.929950   45.598910   40.701910
  O     42.191030   47.123740   40.158740
  O     42.779050   47.012090   42.974980
  O     45.287160   48.115540   43.803190
  O     46.997670   46.177940   42.811010
  O     45.745110   44.116560   41.090140
  O     43.604300   45.052820   39.423230
  H     44.171970   47.606670   39.969270
  H     43.373410   48.746850   41.991470
  H     45.705050   48.165270   41.770490
  H     45.039230   45.572030   43.194950
  H     46.018990   46.037200   40.345890
  H     43.339900   45.092040   41.481880
  H     42.108590   47.687900   43.289770
  H     45.231300   49.115160   43.722280
  H     47.382290   45.254220   42.733090
  H     46.613330   43.982480   41.555570
  H     43.518690   44.039190   39.452350
  O     42.879640   49.712580   38.897050
  O     44.055780   49.615180   38.404470
  H     41.303820   54.250880   36.703880
  H     39.550920   46.425850   33.372390
  H     37.601020   47.664370   37.427910
  H     37.605390   43.645480   40.968290
  H     43.428040   42.770980   34.743330
  H     46.044340   49.086340   33.660870

 Total Charge           Charge          ....    1
 Multiplicity           Mult            ....   12
 Number of Electrons    NEL             ....  377
 Basis Dimension        Dim             .... 1627

ORBITAL ENERGIES
----------------
                 SPIN UP ORBITALS
  NO   OCC          E(Eh)            E(eV)
   0   1.0000    -256.237854     -6972.5865
   1   1.0000    -256.199072     -6971.5312
   2   1.0000     -30.186415      -821.4141
   3   1.0000     -30.141744      -820.1986
   4   1.0000     -26.047398      -708.7857
   5   1.0000     -26.035890      -708.4726
   6   1.0000     -26.034811      -708.4432
   7   1.0000     -26.011359      -707.8051
   8   1.0000     -26.008976      -707.7402
   9   1.0000     -26.007563      -707.7018
  10   1.0000     -19.279984      -524.6350
  11   1.0000     -19.278495      -524.5945
  12   1.0000     -19.257174      -524.0144
  13   1.0000     -19.214384      -522.8500
  14   1.0000     -19.197845      -522.3999
  15   1.0000     -19.192277      -522.2484
  16   1.0000     -19.188432      -522.1438
  17   1.0000     -19.184764      -522.0440
  18   1.0000     -19.181514      -521.9555
  19   1.0000     -19.161828      -521.4198
  20   1.0000     -19.158299      -521.3238
  21   1.0000     -19.154989      -521.2338
  22   1.0000     -19.135897      -520.7142
  23   1.0000     -14.491801      -394.3419
  24   1.0000     -14.491733      -394.3401
  25   1.0000     -14.477242      -393.9458
  26   1.0000     -14.475626      -393.9018
  27   1.0000     -14.432428      -392.7263
  28   1.0000     -14.431331      -392.6965
  29   1.0000     -14.417271      -392.3139
  30   1.0000     -14.411237      -392.1497
  31   1.0000     -10.368101      -282.1304
  32   1.0000     -10.347021      -281.5568
  33   1.0000     -10.346252      -281.5358
  34   1.0000     -10.331181      -281.1257
  35   1.0000     -10.328662      -281.0572
  36   1.0000     -10.327629      -281.0291
  37   1.0000     -10.313872      -280.6547
  38   1.0000     -10.307732      -280.4876
  39   1.0000     -10.306123      -280.4439
  40   1.0000     -10.298249      -280.2296
  41   1.0000     -10.297965      -280.2219
  42   1.0000     -10.297499      -280.2092
  43   1.0000     -10.297456      -280.2080
  44   1.0000     -10.290622      -280.0221
  45   1.0000     -10.289164      -279.9824
  46   1.0000     -10.285182      -279.8740
  47   1.0000     -10.284983      -279.8686
  48   1.0000     -10.284328      -279.8508
  49   1.0000     -10.281373      -279.7704
  50   1.0000     -10.279114      -279.7089
  51   1.0000     -10.245122      -278.7839
  52   1.0000     -10.219348      -278.0826
  53   1.0000      -3.674114       -99.9777
  54   1.0000      -3.503421       -95.3329
  55   1.0000      -2.466275       -67.1108
  56   1.0000      -2.441999       -66.4502
  57   1.0000      -2.439277       -66.3761
  58   1.0000      -2.269226       -61.7488
  59   1.0000      -2.265236       -61.6402
  60   1.0000      -2.263529       -61.5938
  61   1.0000      -1.264908       -34.4199
  62   1.0000      -1.142179       -31.0803
  63   1.0000      -1.140905       -31.0456
  64   1.0000      -1.136296       -30.9202
  65   1.0000      -1.135181       -30.8899
  66   1.0000      -1.121208       -30.5096
  67   1.0000      -1.118802       -30.4442
  68   1.0000      -1.112294       -30.2671
  69   1.0000      -1.107321       -30.1317
  70   1.0000      -1.094357       -29.7790
  71   1.0000      -1.081586       -29.4314
  72   1.0000      -1.066193       -29.0126
  73   1.0000      -1.051805       -28.6211
  74   1.0000      -1.023738       -27.8573
  75   1.0000      -1.017208       -27.6796
  76   1.0000      -1.006163       -27.3791
  77   1.0000      -0.993042       -27.0220
  78   1.0000      -0.990465       -26.9519
  79   1.0000      -0.978154       -26.6169
  80   1.0000      -0.975369       -26.5411
  81   1.0000      -0.877143       -23.8683
  82   1.0000      -0.863824       -23.5058
  83   1.0000      -0.861360       -23.4388
  84   1.0000      -0.858050       -23.3487
  85   1.0000      -0.844643       -22.9839
  86   1.0000      -0.843301       -22.9474
  87   1.0000      -0.806438       -21.9443
  88   1.0000      -0.797381       -21.6978
  89   1.0000      -0.778106       -21.1733
  90   1.0000      -0.777328       -21.1522
  91   1.0000      -0.733643       -19.9634
  92   1.0000      -0.732534       -19.9333
  93   1.0000      -0.718346       -19.5472
  94   1.0000      -0.718078       -19.5399
  95   1.0000      -0.707464       -19.2511
  96   1.0000      -0.705231       -19.1903
  97   1.0000      -0.698901       -19.0181
  98   1.0000      -0.693763       -18.8783
  99   1.0000      -0.689757       -18.7692
 100   1.0000      -0.680874       -18.5275
 101   1.0000      -0.675156       -18.3719
 102   1.0000      -0.667416       -18.1613
 103   1.0000      -0.663007       -18.0414
 104   1.0000      -0.658562       -17.9204
 105   1.0000      -0.646375       -17.5888
 106   1.0000      -0.629036       -17.1169
 107   1.0000      -0.618878       -16.8405
 108   1.0000      -0.608150       -16.5486
 109   1.0000      -0.598776       -16.2935
 110   1.0000      -0.591817       -16.1041
 111   1.0000      -0.580913       -15.8074
 112   1.0000      -0.579171       -15.7600
 113   1.0000      -0.571171       -15.5424
 114   1.0000      -0.567161       -15.4332
 115   1.0000      -0.563855       -15.3433
 116   1.0000      -0.561269       -15.2729
 117   1.0000      -0.557536       -15.1713
 118   1.0000      -0.556418       -15.1409
 119   1.0000      -0.555428       -15.1140
 120   1.0000      -0.553799       -15.0696
 121   1.0000      -0.552072       -15.0226
 122   1.0000      -0.550046       -14.9675
 123   1.0000      -0.547030       -14.8855
 124   1.0000      -0.545865       -14.8537
 125   1.0000      -0.544263       -14.8101
 126   1.0000      -0.543238       -14.7823
 127   1.0000      -0.540582       -14.7100
 128   1.0000      -0.538814       -14.6619
 129   1.0000      -0.534726       -14.5506
 130   1.0000      -0.533769       -14.5246
 131   1.0000      -0.531564       -14.4646
 132   1.0000      -0.526480       -14.3262
 133   1.0000      -0.525054       -14.2875
 134   1.0000      -0.524169       -14.2634
 135   1.0000      -0.520283       -14.1576
 136   1.0000      -0.515516       -14.0279
 137   1.0000      -0.510574       -13.8934
 138   1.0000      -0.510222       -13.8838
 139   1.0000      -0.508761       -13.8441
 140   1.0000      -0.503378       -13.6976
 141   1.0000      -0.497746       -13.5444
 142   1.0000      -0.494909       -13.4672
 143   1.0000      -0.493442       -13.4273
 144   1.0000      -0.481913       -13.1135
 145   1.0000      -0.477422       -12.9913
 146   1.0000      -0.476327       -12.9615
 147   1.0000      -0.475897       -12.9498
 148   1.0000      -0.468188       -12.7400
 149   1.0000      -0.466208       -12.6862
 150   1.0000      -0.462017       -12.5721
 151   1.0000      -0.457698       -12.4546
 152   1.0000      -0.455923       -12.4063
 153   1.0000      -0.452195       -12.3048
 154   1.0000      -0.449183       -12.2229
 155   1.0000      -0.445636       -12.1264
 156   1.0000      -0.444299       -12.0900
 157   1.0000      -0.440072       -11.9750
 158   1.0000      -0.426474       -11.6050
 159   1.0000      -0.420855       -11.4521
 160   1.0000      -0.418726       -11.3941
 161   1.0000      -0.414177       -11.2703
 162   1.0000      -0.410706       -11.1759
 163   1.0000      -0.409077       -11.1316
 164   1.0000      -0.407908       -11.0997
 165   1.0000      -0.402243       -10.9456
 166   1.0000      -0.394908       -10.7460
 167   1.0000      -0.390761       -10.6331
 168   1.0000      -0.380007       -10.3405
 169   1.0000      -0.374659       -10.1950
 170   1.0000      -0.369779       -10.0622
 171   1.0000      -0.365665        -9.9502
 172   1.0000      -0.362094        -9.8531
 173   1.0000      -0.357021        -9.7150
 174   1.0000      -0.353605        -9.6221
 175   1.0000      -0.350444        -9.5361
 176   1.0000      -0.347408        -9.4534
 177   1.0000      -0.345528        -9.4023
 178   1.0000      -0.343426        -9.3451
 179   1.0000      -0.341624        -9.2960
 180   1.0000      -0.337696        -9.1892
 181   1.0000      -0.333047        -9.0627
 182   1.0000      -0.331041        -9.0081
 183   1.0000      -0.329017        -8.9530
 184   1.0000      -0.320174        -8.7124
 185   1.0000      -0.318155        -8.6574
 186   1.0000      -0.311216        -8.4686
 187   1.0000      -0.310576        -8.4512
 188   1.0000      -0.305700        -8.3185
 189   0.0000      -0.184224        -5.0130
 190   0.0000      -0.182646        -4.9701
 191   0.0000      -0.175271        -4.7694
 192   0.0000      -0.141818        -3.8591
 193   0.0000      -0.122917        -3.3447

                 SPIN DOWN ORBITALS
  NO   OCC          E(Eh)            E(eV)
   0   1.0000    -256.239653     -6972.6354
   1   1.0000    -256.197439     -6971.4867
   2   1.0000     -30.233968      -822.7081
   3   1.0000     -30.098116      -819.0114
   4   1.0000     -26.089777      -709.9389
   5   1.0000     -26.085633      -709.8262
   6   1.0000     -26.082765      -709.7481
   7   1.0000     -25.969743      -706.6726
   8   1.0000     -25.964463      -706.5289
   9   1.0000     -25.963574      -706.5048
  10   1.0000     -19.259213      -524.0698
  11   1.0000     -19.255845      -523.9782
  12   1.0000     -19.254314      -523.9365
  13   1.0000     -19.214399      -522.8504
  14   1.0000     -19.197862      -522.4004
  15   1.0000     -19.192275      -522.2483
  16   1.0000     -19.192035      -522.2418
  17   1.0000     -19.184813      -522.0453
  18   1.0000     -19.179622      -521.9040
  19   1.0000     -19.164564      -521.4943
  20   1.0000     -19.162809      -521.4465
  21   1.0000     -19.155442      -521.2461
  22   1.0000     -19.135920      -520.7149
  23   1.0000     -14.491885      -394.3442
  24   1.0000     -14.491819      -394.3424
  25   1.0000     -14.477152      -393.9433
  26   1.0000     -14.475563      -393.9001
  27   1.0000     -14.434190      -392.7743
  28   1.0000     -14.433117      -392.7451
  29   1.0000     -14.415794      -392.2737
  30   1.0000     -14.409218      -392.0947
  31   1.0000     -10.368170      -282.1322
  32   1.0000     -10.347051      -281.5576
  33   1.0000     -10.346371      -281.5391
  34   1.0000     -10.331182      -281.1258
  35   1.0000     -10.328530      -281.0536
  36   1.0000     -10.327600      -281.0283
  37   1.0000     -10.313918      -280.6560
  38   1.0000     -10.307783      -280.4890
  39   1.0000     -10.306312      -280.4490
  40   1.0000     -10.298303      -280.2311
  41   1.0000     -10.297884      -280.2197
  42   1.0000     -10.297531      -280.2101
  43   1.0000     -10.297396      -280.2064
  44   1.0000     -10.290633      -280.0224
  45   1.0000     -10.289172      -279.9826
  46   1.0000     -10.285362      -279.8789
  47   1.0000     -10.285078      -279.8712
  48   1.0000     -10.284267      -279.8491
  49   1.0000     -10.281344      -279.7696
  50   1.0000     -10.279112      -279.7089
  51   1.0000     -10.245190      -278.7858
  52   1.0000     -10.219213      -278.0789
  53   1.0000      -3.719858      -101.2225
  54   1.0000      -3.465713       -94.3068
  55   1.0000      -2.501957       -68.0817
  56   1.0000      -2.492861       -67.8342
  57   1.0000      -2.487539       -67.6894
  58   1.0000      -2.231218       -60.7145
  59   1.0000      -2.230248       -60.6881
  60   1.0000      -2.227154       -60.6039
  61   1.0000      -1.217847       -33.1393
  62   1.0000      -1.145316       -31.1656
  63   1.0000      -1.142676       -31.0938
  64   1.0000      -1.137219       -30.9453
  65   1.0000      -1.135981       -30.9116
  66   1.0000      -1.120390       -30.4874
  67   1.0000      -1.117965       -30.4214
  68   1.0000      -1.112686       -30.2777
  69   1.0000      -1.104383       -30.0518
  70   1.0000      -1.094726       -29.7890
  71   1.0000      -1.081893       -29.4398
  72   1.0000      -1.066529       -29.0217
  73   1.0000      -1.054222       -28.6868
  74   1.0000      -1.040994       -28.3269
  75   1.0000      -1.017674       -27.6923
  76   1.0000      -1.005948       -27.3732
  77   1.0000      -0.994692       -27.0669
  78   1.0000      -0.992158       -26.9980
  79   1.0000      -0.976588       -26.5743
  80   1.0000      -0.973615       -26.4934
  81   1.0000      -0.879070       -23.9207
  82   1.0000      -0.861707       -23.4482
  83   1.0000      -0.858449       -23.3596
  84   1.0000      -0.844256       -22.9734
  85   1.0000      -0.842923       -22.9371
  86   1.0000      -0.807051       -21.9610
  87   1.0000      -0.798104       -21.7175
  88   1.0000      -0.794771       -21.6268
  89   1.0000      -0.780689       -21.2436
  90   1.0000      -0.776563       -21.1313
  91   1.0000      -0.734920       -19.9982
  92   1.0000      -0.733790       -19.9674
  93   1.0000      -0.717068       -19.5124
  94   1.0000      -0.716804       -19.5052
  95   1.0000      -0.708404       -19.2767
  96   1.0000      -0.706175       -19.2160
  97   1.0000      -0.699757       -19.0414
  98   1.0000      -0.692727       -18.8501
  99   1.0000      -0.688746       -18.7417
 100   1.0000      -0.681480       -18.5440
 101   1.0000      -0.675647       -18.3853
 102   1.0000      -0.670556       -18.2468
 103   1.0000      -0.662467       -18.0266
 104   1.0000      -0.657978       -17.9045
 105   1.0000      -0.647599       -17.6221
 106   1.0000      -0.635760       -17.2999
 107   1.0000      -0.620371       -16.8811
 108   1.0000      -0.609745       -16.5920
 109   1.0000      -0.593130       -16.1399
 110   1.0000      -0.591411       -16.0931
 111   1.0000      -0.581499       -15.8234
 112   1.0000      -0.580279       -15.7902
 113   1.0000      -0.570245       -15.5171
 114   1.0000      -0.568236       -15.4625
 115   1.0000      -0.562670       -15.3110
 116   1.0000      -0.559493       -15.2246
 117   1.0000      -0.558229       -15.1902
 118   1.0000      -0.557171       -15.1614
 119   1.0000      -0.553142       -15.0518
 120   1.0000      -0.551553       -15.0085
 121   1.0000      -0.549128       -14.9425
 122   1.0000      -0.546894       -14.8817
 123   1.0000      -0.543897       -14.8002
 124   1.0000      -0.541718       -14.7409
 125   1.0000      -0.540123       -14.6975
 126   1.0000      -0.537168       -14.6171
 127   1.0000      -0.534190       -14.5360
 128   1.0000      -0.533448       -14.5159
 129   1.0000      -0.531493       -14.4627
 130   1.0000      -0.530416       -14.4334
 131   1.0000      -0.528256       -14.3746
 132   1.0000      -0.525837       -14.3088
 133   1.0000      -0.523171       -14.2362
 134   1.0000      -0.519312       -14.1312
 135   1.0000      -0.516004       -14.0412
 136   1.0000      -0.513061       -13.9611
 137   1.0000      -0.512510       -13.9461
 138   1.0000      -0.510681       -13.8963
 139   1.0000      -0.508840       -13.8462
 140   1.0000      -0.507842       -13.8191
 141   1.0000      -0.504179       -13.7194
 142   1.0000      -0.500404       -13.6167
 143   1.0000      -0.495517       -13.4837
 144   1.0000      -0.493002       -13.4153
 145   1.0000      -0.492363       -13.3979
 146   1.0000      -0.484404       -13.1813
 147   1.0000      -0.478649       -13.0247
 148   1.0000      -0.475023       -12.9260
 149   1.0000      -0.474197       -12.9035
 150   1.0000      -0.469531       -12.7766
 151   1.0000      -0.459678       -12.5085
 152   1.0000      -0.458465       -12.4755
 153   1.0000      -0.453151       -12.3309
 154   1.0000      -0.447946       -12.1892
 155   1.0000      -0.445628       -12.1262
 156   1.0000      -0.441547       -12.0151
 157   1.0000      -0.431590       -11.7442
 158   1.0000      -0.427979       -11.6459
 159   1.0000      -0.422269       -11.4905
 160   1.0000      -0.418153       -11.3785
 161   1.0000      -0.415981       -11.3194
 162   1.0000      -0.412080       -11.2133
 163   1.0000      -0.408747       -11.1226
 164   1.0000      -0.406622       -11.0648
 165   1.0000      -0.400034       -10.8855
 166   1.0000      -0.393799       -10.7158
 167   1.0000      -0.392328       -10.6758
 168   1.0000      -0.379711       -10.3325
 169   1.0000      -0.379328       -10.3221
 170   1.0000      -0.369635       -10.0583
 171   1.0000      -0.364630        -9.9221
 172   1.0000      -0.362774        -9.8716
 173   1.0000      -0.359628        -9.7860
 174   1.0000      -0.356508        -9.7011
 175   1.0000      -0.352828        -9.6009
 176   1.0000      -0.349894        -9.5211
 177   1.0000      -0.345549        -9.4029
 178   1.0000      -0.341084        -9.2814
 179   1.0000      -0.338763        -9.2182
 180   1.0000      -0.336909        -9.1678
 181   1.0000      -0.333146        -9.0654
 182   1.0000      -0.331314        -9.0155
 183   1.0000      -0.329542        -8.9673
 184   1.0000      -0.324484        -8.8296
 185   1.0000      -0.311515        -8.4767
 186   1.0000      -0.305320        -8.3082
 187   1.0000      -0.285378        -7.7655
 188   0.0000      -0.162882        -4.4322
 189   0.0000      -0.154622        -4.2075
 190   0.0000      -0.150136        -4.0854
 191   0.0000      -0.139104        -3.7852
 192   0.0000      -0.106825        -2.9069

MULLIKEN ATOMIC CHARGES AND SPIN POPULATIONS
--------------------------------------------
   0 C :   -0.035863    0.004955
   1 N :   -0.219287    0.002630
   2 H :    0.256198    0.001129
   3 C :    0.051921    0.006973
   4 H :    0.194436    0.000035
   5 N :   -0.138469    0.035996
   6 C :   -0.087819    0.002167
   7 H :    0.161886    0.000917
   8 C :   -0.069168    0.002886
   9 N :   -0.228773    0.001368
  10 H :    0.248944    0.001467
  11 C :    0.060469    0.000336
  12 H :    0.171166    0.000819
  13 N :   -0.092904    0.043505
  14 C :   -0.093472   -0.000064
  15 H :    0.186312   -0.001208
  16 C :   -0.367411   -0.003389
  17 H :    0.128340   -0.001361
  18 H :    0.138844   -0.000590
  19 C :    0.495677   -0.002724
  20 O :   -0.515967   -0.086233
  21 O :   -0.438385    0.033395
  22 C :   -0.033700   -0.001812
  23 N :   -0.231482   -0.002714
  24 H :    0.257524   -0.000973
  25 C :    0.092628   -0.001569
  26 H :    0.157697   -0.000358
  27 N :   -0.180487   -0.037970
  28 C :   -0.098935   -0.001282
  29 H :    0.166736   -0.000204
  30 C :   -0.035687   -0.002666
  31 N :   -0.228279   -0.002615
  32 H :    0.255197   -0.001128
  33 C :    0.064831   -0.006228
  34 H :    0.190770   -0.000301
  35 N :   -0.191712   -0.040649
  36 C :   -0.127225    0.001304
  37 H :    0.219506   -0.000754
  38 C :   -0.349085    0.006204
  39 H :    0.108713   -0.000199
  40 H :    0.134248    0.000808
  41 C :    0.415353   -0.000070
  42 O :   -0.466682    0.069341
  43 O :   -0.536076    0.000174
  44 Fe:    0.780178    4.065957
  45 Fe:    0.792476   -4.214286
  46 O :   -0.851914   -0.028655
  47 H :    0.362303    0.000243
  48 C :    0.236330    0.000724
  49 C :    0.007603   -0.011950
  50 C :    0.108173   -0.001615
  51 C :    0.052766   -0.000538
  52 C :    0.035424   -0.002039
  53 C :    0.077108   -0.005084
  54 O :   -0.528073   -0.317716
  55 O :   -0.464451   -0.000116
  56 O :   -0.423114   -0.001403
  57 O :   -0.395191   -0.000469
  58 O :   -0.445291   -0.000411
  59 O :   -0.449896   -0.039249
  60 H :    0.103064   -0.008645
  61 H :    0.096944   -0.000073
  62 H :    0.079437   -0.000112
  63 H :    0.074180   -0.000022
  64 H :    0.088018    0.000033
  65 H :    0.076952   -0.000614
  66 H :    0.318452   -0.000026
  67 H :    0.304632    0.000054
  68 H :    0.272172    0.000007
  69 H :    0.285222    0.000002
  70 H :    0.342039   -0.002257
  71 O :   -0.113127    0.769726
  72 O :   -0.120105    0.777379
  73 H :    0.167758    0.000527
  74 H :    0.157025    0.000758
  75 H :    0.118975    0.001886
  76 H :    0.174212   -0.000558
  77 H :    0.176630   -0.000555
  78 H :    0.112560   -0.000251
Sum of atomic charges         :    1.0000000

LOEWDIN ATOMIC CHARGES AND SPIN POPULATIONS
-------------------------------------------
   0 C :   -0.215001    0.003836
   1 N :    0.194808    0.002957
   2 H :    0.211979    0.000585
   3 C :   -0.247588    0.007745
   4 H :    0.149962    0.000129
   5 N :    0.149459    0.041613
   6 C :   -0.207953    0.004566
   7 H :    0.149108    0.000485
   8 C :   -0.220574    0.002474
   9 N :    0.192612    0.001382
  10 H :    0.206334    0.000748
  11 C :   -0.256289    0.003124
  12 H :    0.141044    0.000217
  13 N :    0.167166    0.054221
  14 C :   -0.209988    0.002669
  15 H :    0.150126    0.000372
  16 C :   -0.259335   -0.002408
  17 H :    0.130825   -0.000801
  18 H :    0.144362   -0.000420
  19 C :   -0.518512   -0.007969
  20 O :    0.077658   -0.095380
  21 O :    0.119704    0.044794
  22 C :   -0.206007   -0.001716
  23 N :    0.201515   -0.002288
  24 H :    0.210817   -0.000545
  25 C :   -0.258271   -0.003601
  26 H :    0.137815   -0.000162
  27 N :    0.145624   -0.047064
  28 C :   -0.220785   -0.003269
  29 H :    0.145192   -0.000277
  30 C :   -0.208700   -0.002251
  31 N :    0.199809   -0.002766
  32 H :    0.210474   -0.000633
  33 C :   -0.262935   -0.007251
  34 H :    0.144012   -0.000107
  35 N :    0.136350   -0.047773
  36 C :   -0.208280   -0.002358
  37 H :    0.153579   -0.000152
  38 C :   -0.273610    0.004144
  39 H :    0.135226   -0.000068
  40 H :    0.132259    0.000571
  41 C :   -0.570802    0.005519
  42 O :    0.071475    0.073025
  43 O :   -0.046294   -0.000888
  44 Fe:    0.164957    4.010262
  45 Fe:    0.288254   -4.160986
  46 O :   -0.220688   -0.026043
  47 H :    0.157161   -0.000980
  48 C :   -0.343089   -0.022672
  49 C :   -0.315548   -0.007632
  50 C :   -0.320561   -0.001420
  51 C :   -0.310901   -0.000344
  52 C :   -0.324127   -0.002220
  53 C :   -0.286425   -0.007811
  54 O :   -0.010746   -0.297173
  55 O :   -0.014050   -0.000241
  56 O :   -0.001792   -0.001373
  57 O :    0.000178   -0.000465
  58 O :   -0.011029   -0.000497
  59 O :    0.099775   -0.050021
  60 H :    0.156164   -0.006248
  61 H :    0.143035    0.000078
  62 H :    0.147518    0.000004
  63 H :    0.144444   -0.000015
  64 H :    0.147564   -0.000004
  65 H :    0.145157   -0.000112
  66 H :    0.204025   -0.000083
  67 H :    0.199020   -0.000009
  68 H :    0.179153   -0.000009
  69 H :    0.181387   -0.000035
  70 H :    0.222957   -0.002438
  71 O :   -0.023327    0.773102
  72 O :   -0.037657    0.779392
  73 H :    0.144080    0.000323
  74 H :    0.141557    0.000391
  75 H :    0.122741    0.000889
  76 H :    0.147293   -0.000335
  77 H :    0.147755   -0.000344
  78 H :    0.117394    0.000037

  Mayer bond orders larger than 0.100000
B(  0-C ,  1-N ) :   1.1453 B(  0-C ,  6-C ) :   1.6316 B(  0-C , 73-H ) :   0.9409
B(  1-N ,  2-H ) :   0.9055 B(  1-N ,  3-C ) :   1.2830 B(  3-C ,  4-H ) :   0.9372
B(  3-C ,  5-N ) :   1.4591 B(  5-N ,  6-C ) :   1.2075 B(  5-N , 44-Fe) :   0.5372
B(  6-C ,  7-H ) :   0.9626 B(  8-C ,  9-N ) :   1.1566 B(  8-C , 14-C ) :   1.6304
B(  8-C , 74-H ) :   0.9464 B(  9-N , 10-H ) :   0.9095 B(  9-N , 11-C ) :   1.2808
B( 11-C , 12-H ) :   0.9458 B( 11-C , 13-N ) :   1.4975 B( 13-N , 14-C ) :   1.2267
B( 13-N , 44-Fe) :   0.4133 B( 14-C , 15-H ) :   0.9496 B( 16-C , 17-H ) :   0.9834
B( 16-C , 18-H ) :   0.9515 B( 16-C , 19-C ) :   0.9455 B( 16-C , 75-H ) :   0.9708
B( 19-C , 20-O ) :   1.3869 B( 19-C , 21-O ) :   1.5873 B( 20-O , 45-Fe) :   0.5031
B( 21-O , 44-Fe) :   0.3307 B( 22-C , 23-N ) :   1.1452 B( 22-C , 28-C ) :   1.6346
B( 22-C , 76-H ) :   0.9418 B( 23-N , 24-H ) :   0.9056 B( 23-N , 25-C ) :   1.3098
B( 25-C , 26-H ) :   0.9379 B( 25-C , 27-N ) :   1.4532 B( 27-N , 28-C ) :   1.2174
B( 27-N , 45-Fe) :   0.4190 B( 28-C , 29-H ) :   0.9601 B( 30-C , 31-N ) :   1.1509
B( 30-C , 36-C ) :   1.6525 B( 30-C , 77-H ) :   0.9358 B( 31-N , 32-H ) :   0.9064
B( 31-N , 33-C ) :   1.3019 B( 33-C , 34-H ) :   0.9409 B( 33-C , 35-N ) :   1.4575
B( 35-N , 36-C ) :   1.1833 B( 35-N , 45-Fe) :   0.4693 B( 36-C , 37-H ) :   0.9164
B( 38-C , 39-H ) :   0.9468 B( 38-C , 40-H ) :   0.9810 B( 38-C , 41-C ) :   0.9657
B( 38-C , 78-H ) :   0.9705 B( 41-C , 42-O ) :   1.4663 B( 41-C , 43-O ) :   1.6180
B( 42-O , 44-Fe) :   0.4435 B( 43-O , 47-H ) :   0.1692 B( 44-Fe, 46-O ) :   0.4057
B( 44-Fe, 71-O ) :   0.4700 B( 44-Fe, 72-O ) :   0.4192 B( 45-Fe, 46-O ) :   0.5121
B( 45-Fe, 54-O ) :   0.9355 B( 45-Fe, 59-O ) :   0.2670 B( 46-O , 47-H ) :   0.7466
B( 48-C , 49-C ) :   0.8529 B( 48-C , 53-C ) :   0.9357 B( 48-C , 54-O ) :   0.8743
B( 48-C , 55-O ) :  -0.1419 B( 48-C , 60-H ) :   0.9552 B( 49-C , 50-C ) :   0.9028
B( 49-C , 55-O ) :   1.2103 B( 49-C , 61-H ) :   0.9655 B( 50-C , 51-C ) :   0.9287
B( 50-C , 56-O ) :   1.0823 B( 50-C , 62-H ) :   0.9670 B( 51-C , 52-C ) :   0.9554
B( 51-C , 57-O ) :   1.0440 B( 51-C , 63-H ) :   0.9668 B( 52-C , 53-C ) :   0.9323
B( 52-C , 58-O ) :   1.0311 B( 52-C , 64-H ) :   0.9745 B( 53-C , 59-O ) :   0.7653
B( 53-C , 65-H ) :   0.9646 B( 55-O , 66-H ) :   0.8874 B( 56-O , 67-H ) :   0.8895
B( 57-O , 68-H ) :   0.8938 B( 58-O , 69-H ) :   0.8851 B( 59-O , 70-H ) :   0.8530
B( 71-O , 72-O ) :   1.3477

FINAL SINGLE POINT ENERGY     -4801.665107870500

DIPOLE MOMENT
-------------
                                X             Y             Z
Electronic contribution:     -6.95595       6.79443      -6.24038
Nuclear contribution   :      2.83187      -8.56052       3.37323
                        -----------------------------------------
Total Dipole Moment    :     -4.12408      -1.76609      -2.86715
                        -----------------------------------------
Magnitude (a.u.)       :      5.32425
Magnitude (Debye)      :     13.53318

Rotational constants in cm-1:     0.002818     0.001896     0.001591
Rotational constants in MHz :    84.485992    56.848204    47.689819

                             ****ORCA TERMINATED NORMALLY****
TOTAL RUN TIME: 0 days 3 hours 48 minutes 35 seconds 810 msec
