                         Program Version 5.0.0 -  RELEASE  -
|  1> ! UHF def2-SVP pal4 VeryTightSCF
|  2>
|  3> %scf
|  4>     ConvForced  True
|  5>     BrokenSym   1,1
|  6> end
|  7>
|  8> *xyz 0 3
|  9>  C   -0.56828011888064      0.21526016701941      0.00000000000000
| 10>  H   -0.02093310180940     -0.71582241410459      0.00000000000000
| 11>  H   -1.62855716930996      0.42096895708518      0.00000000000000
| 12> *
| 13>
| 14>                          ****END OF INPUT****

CARTESIAN COORDINATES (ANGSTROEM)
---------------------------------
  C     -0.568280    0.215260    0.000000
  H     -0.020933   -0.715822    0.000000
  H     -1.628557    0.420969    0.000000

 Total Charge           Charge          ....    0
 Multiplicity           Mult            ....    3
 Number of Electrons    NEL             ....    8
 Basis Dimension        Dim             ....   24

ORBITAL ENERGIES
----------------
                 SPIN UP ORBITALS
  NO   OCC          E(Eh)            E(eV)
   0   1.0000     -11.253666      -306.2278
   1   1.0000      -0.857998       -23.3473
   2   1.0000      -0.597954       -16.2712
   3   1.0000      -0.373591       -10.1659
   4   0.0000       0.090422         2.4605
   5   0.0000       0.213738         5.8161
   6   0.0000       0.268471         7.3055
   7   0.0000       0.569781        15.5045
   8   0.0000       0.673699        18.3323

                 SPIN DOWN ORBITALS
  NO   OCC          E(Eh)            E(eV)
   0   1.0000     -11.254703      -306.2560
   1   1.0000      -0.848045       -23.0765
   2   1.0000      -0.607123       -16.5207
   3   1.0000      -0.422931       -11.5085
   4   0.0000       0.124088         3.3766
   5   0.0000       0.216150         5.8817
   6   0.0000       0.260184         7.0800
   7   0.0000       0.580854        15.8058
   8   0.0000       0.642858        17.4931

MULLIKEN ATOMIC CHARGES AND SPIN POPULATIONS
--------------------------------------------
   0 C :   -0.208311    0.154615
   1 H :    0.104155   -0.077308
   2 H :    0.104155   -0.077308
Sum of atomic charges         :   -0.0000000

LOEWDIN ATOMIC CHARGES AND SPIN POPULATIONS
-------------------------------------------
   0 C :   -0.028973    0.063297
   1 H :    0.014487   -0.031649
   2 H :    0.014487   -0.031649

  Mayer bond orders larger than 0.100000
B(  0-C ,  1-H ) :   0.9674 B(  0-C ,  2-H ) :   0.9674

FINAL SINGLE POINT ENERGY       -38.857026900129

DIPOLE MOMENT
-------------
                                X             Y             Z
Electronic contribution:      0.23829       0.33699       0.00000
Nuclear contribution   :     -0.41206      -0.58272       0.00000
                        -----------------------------------------
Total Dipole Moment    :     -0.17377      -0.24574       0.00000
                        -----------------------------------------
Magnitude (a.u.)       :      0.30097
Magnitude (Debye)      :      0.76499

Rotational constants in cm-1:    49.491373     8.627771     7.346981
Rotational constants in MHz : 1483714.044143 258654.059176 220256.936203

                             ****ORCA TERMINATED NORMALLY****
TOTAL RUN TIME: 0 days 0 hours 0 minutes 11 seconds 23 msec
