 Gaussian 16, Revision A.03,
 Gaussian 16:  ES64L-G16RevA.03 25-Dec-2016

 ----------------
 #p B3LYP/cc-pVTZ
 ----------------

 ---------------------------------------
 2,7-dicl-dibenzene SP RKS B3LYP cc-pVTZ
 ---------------------------------------
 Symbolic Z-matrix:
 Charge =  0 Multiplicity = 1

                         Standard orientation:
 ---------------------------------------------------------------------
 Center     Atomic      Atomic             Coordinates (Angstroms)
 Number     Number       Type             X           Y           Z
 ---------------------------------------------------------------------
      1          6           0        2.244851    2.071295    0.751392
      2          6           0        3.304207    1.300888    0.295737
      3          6           0        3.045185    0.017738   -0.158120
      4          6           0        1.759769   -0.498571   -0.162997
      5          6           0        0.693974    0.275570    0.295604
      6          6           0        0.952908    1.567889    0.752876
      7          1           0        2.431824    3.072719    1.115696
      8          1           0        4.313802    1.684902    0.291253
      9          1           0        1.591308   -1.495485   -0.542306
     10          1           0        0.143223    2.177007    1.130202
     11          6           0       -0.693966   -0.275587    0.295567
     12          6           0       -1.759785    0.498546   -0.163005
     13          6           0       -0.952881   -1.567887    0.752886
     14          6           0       -3.045206   -0.017708   -0.158130
     15          1           0       -1.591168    1.495446   -0.542292
     16          6           0       -2.244844   -2.071272    0.751396
     17          1           0       -0.143236   -2.177042    1.130233
     18          6           0       -3.304192   -1.300884    0.295735
     19          1           0       -2.431844   -3.072681    1.115730
     20          1           0       -4.313786   -1.684904    0.291264
     21         17           0        4.357579   -0.965630   -0.743634
     22         17           0       -4.357593    0.965627   -0.743627
 ---------------------------------------------------------------------

 SCF Done:  E(RB3LYP) =  -1382.72935740     A.U. after   14 cycles

 The electronic state is 1-A.
 Alpha  occ. eigenvalues -- -101.56573-101.56573 -10.24754 -10.24754 -10.20923
 Alpha  occ. eigenvalues --  -10.20893 -10.19657 -10.19657 -10.19637 -10.19637
 Alpha  occ. eigenvalues --  -10.19571 -10.19571 -10.19223 -10.19222  -9.47136
 Alpha  occ. eigenvalues --   -9.47136  -7.23433  -7.23432  -7.22569  -7.22569
 Alpha  occ. eigenvalues --   -7.22527  -7.22527  -0.90923  -0.90134  -0.86107
 Alpha  occ. eigenvalues --   -0.84205  -0.79388  -0.76076  -0.74501  -0.73887
 Alpha  occ. eigenvalues --   -0.65136  -0.63255  -0.60819  -0.59285  -0.54399
 Alpha  occ. eigenvalues --   -0.52031  -0.49757  -0.48417  -0.47413  -0.46016
 Alpha  occ. eigenvalues --   -0.44463  -0.44369  -0.43959  -0.41389  -0.40598
 Alpha  occ. eigenvalues --   -0.39435  -0.38053  -0.36856  -0.36515  -0.35131
 Alpha  occ. eigenvalues --   -0.33983  -0.32220  -0.31928  -0.29313  -0.26554
 Alpha  occ. eigenvalues --   -0.26095  -0.24930
 Alpha virt. eigenvalues --   -0.05212  -0.03060  -0.02995  -0.00440   0.01802
 Alpha virt. eigenvalues --    0.01982   0.05074   0.05280   0.07181   0.07478
 Alpha virt. eigenvalues --    0.08794   0.09887   0.10853   0.10905   0.13475

 Mulliken charges:
               1
     1  C   -0.091852
     2  C   -0.125955
     3  C    0.078333
     4  C   -0.145929
     5  C    0.066337
     6  C   -0.133827
     7  H    0.112809
     8  H    0.122304
     9  H    0.122636
    10  H    0.114927
    11  C    0.066335
    12  C   -0.145912
    13  C   -0.133835
    14  C    0.078309
    15  H    0.122631
    16  C   -0.091849
    17  H    0.114929
    18  C   -0.125944
    19  H    0.112806
    20  H    0.122300
    21  Cl  -0.119787
    22  Cl  -0.119765
 Sum of Mulliken charges =  -0.00000

 Dipole moment (field-independent basis, Debye):
    X=             -0.0001    Y=              0.0001    Z=              1.1380  Tot=              1.1380
 Quadrupole moment (field-independent basis, Debye-Ang):
   XX=           -100.9647   YY=            -86.3821   ZZ=            -97.6298
   XY=              8.3622   XZ=              0.0002   YZ=             -0.0001

 Normal termination of Gaussian 16 at Wed May  4 14:32:24 2022.
