 Gaussian 16, Revision A.03,
 Gaussian 16:  ES64L-G16RevA.03 25-Dec-2016

 -----------------------
 #p RHF/cc-pVDZ MP2=Full
 -----------------------

 ---------------------------------
 2,7-dicl-dibenzene SP MP2 cc-pVDZ
 ---------------------------------
 Symbolic Z-matrix:
 Charge =  0 Multiplicity = 1

                         Standard orientation:
 ---------------------------------------------------------------------
 Center     Atomic      Atomic             Coordinates (Angstroms)
 Number     Number       Type             X           Y           Z
 ---------------------------------------------------------------------
      1          6           0        2.244851    2.071295    0.751392
      2          6           0        3.304207    1.300888    0.295737
      3          6           0        3.045185    0.017738   -0.158120
      4          6           0        1.759769   -0.498571   -0.162997
      5          6           0        0.693974    0.275570    0.295604
      6          6           0        0.952908    1.567889    0.752876
      7          1           0        2.431824    3.072719    1.115696
      8          1           0        4.313802    1.684902    0.291253
      9          1           0        1.591308   -1.495485   -0.542306
     10          1           0        0.143223    2.177007    1.130202
     11          6           0       -0.693966   -0.275587    0.295567
     12          6           0       -1.759785    0.498546   -0.163005
     13          6           0       -0.952881   -1.567887    0.752886
     14          6           0       -3.045206   -0.017708   -0.158130
     15          1           0       -1.591168    1.495446   -0.542292
     16          6           0       -2.244844   -2.071272    0.751396
     17          1           0       -0.143236   -2.177042    1.130233
     18          6           0       -3.304192   -1.300884    0.295735
     19          1           0       -2.431844   -3.072681    1.115730
     20          1           0       -4.313786   -1.684904    0.291264
     21         17           0        4.357579   -0.965630   -0.743634
     22         17           0       -4.357593    0.965627   -0.743627
 ---------------------------------------------------------------------

 SCF Done:  E(RHF) =  -1378.12952554     A.U. after   16 cycles
 E2 =    -0.1867509718D+01 EUMP2 =    -0.13799970352621D+04

 The electronic state is 1-A.
 Alpha  occ. eigenvalues -- -104.83714-104.83713 -11.31104 -11.31104 -11.26987
 Alpha  occ. eigenvalues --  -11.26918 -11.25892 -11.25892 -11.25852 -11.25852
 Alpha  occ. eigenvalues --  -11.25749 -11.25749 -11.25401 -11.25400 -10.56418
 Alpha  occ. eigenvalues --  -10.56417  -8.03182  -8.03181  -8.02838  -8.02838
 Alpha  occ. eigenvalues --   -8.02828  -8.02828  -1.20905  -1.19558  -1.14147
 Alpha  occ. eigenvalues --   -1.11933  -1.06780  -1.02582  -1.00422  -0.99833
 Alpha  occ. eigenvalues --   -0.87944  -0.85291  -0.82246  -0.80103  -0.72456
 Alpha  occ. eigenvalues --   -0.70008  -0.67330  -0.65997  -0.64445  -0.62646
 Alpha  occ. eigenvalues --   -0.60683  -0.59689  -0.59063  -0.55625  -0.54798
 Alpha  occ. eigenvalues --   -0.54498  -0.52361  -0.51062  -0.50767  -0.48120
 Alpha  occ. eigenvalues --   -0.46647  -0.45880  -0.45514  -0.38140  -0.34668
 Alpha  occ. eigenvalues --   -0.34523  -0.32241
 Alpha virt. eigenvalues --    0.08567   0.11477   0.11523   0.15101   0.17283
 Alpha virt. eigenvalues --    0.17697   0.20310   0.21803   0.22732   0.23959
 Alpha virt. eigenvalues --    0.24737   0.25174   0.26630   0.28083   0.33080

 Mulliken charges:
               1
     1  C    0.010748
     2  C    0.082989
     3  C   -0.188696
     4  C    0.125088
     5  C   -0.066175
     6  C    0.002955
     7  H    0.035307
     8  H    0.038302
     9  H    0.033467
    10  H    0.024604
    11  C   -0.066189
    12  C    0.125089
    13  C    0.002967
    14  C   -0.188680
    15  H    0.033464
    16  C    0.010741
    17  H    0.024604
    18  C    0.082979
    19  H    0.035304
    20  H    0.038299
    21  Cl  -0.098591
    22  Cl  -0.098577
 Sum of Mulliken charges =  -0.00000

 Dipole moment (field-independent basis, Debye):
    X=             -0.0001    Y=              0.0001    Z=              1.3208  Tot=              1.3208
 Quadrupole moment (field-independent basis, Debye-Ang):
   XX=           -102.5786   YY=            -85.8369   ZZ=            -99.4635
   XY=              9.6906   XZ=              0.0002   YZ=             -0.0001

 Normal termination of Gaussian 16 at Wed May  4 12:40:21 2022.
