                         Program Version 5.0.0 -  RELEASE  -
|  1> ! TZVP Usesym MOread
|  2> %moinp	"cytosine-RHF.gbw"
|  3>
|  4> %pal
|  5> 	nprocs	32
|  6> end
|  7>
|  8> %scf
|  9>     rotate
| 10>         {20,25} {23,26} {30,33} {31,38}
| 11>     end
| 12> end
| 13>
| 14> %casscf
| 15>     nel     10
| 16>     norb    8
| 17>     mult    1
| 18>     irrep   0
| 19>     Nroots  6
| 20>     etol    1e-9
| 21>     gtol    1e-5
| 22> end
| 23>
| 24> %autoCI
| 25>     CItype  FICMRCI
| 26> 	nel	    10
| 27> 	norb    8
| 28> 	irrep   0
| 29>     mult    1
| 30>     NRoots  6
| 31> end
| 32>
| 33> # cytosine
| 34>
| 35> *xyz 0 1
| 36>  H 	-2.114860 		-1.429678 		0.000000
| 37>  H 	-0.173973 		-2.806186 		0.000000
| 38>  H 	2.073228 		-1.658021 		0.000000
| 39>  H 	3.175240 		0.564335 		0.000000
| 40>  H 	2.235202 		2.033636 		0.000000
| 41>  C 	-0.060783 		-1.726152 		0.000000
| 42>  C 	1.144884 		-1.099470 		0.000000
| 43>  C 	1.107049 		0.338190 		0.000000
| 44>  C 	-1.227573 		0.430359 		0.000000
| 45>  O 	-2.315109 		0.998271 		0.000000
| 46>  N 	0.000000 		1.058130 		0.000000
| 47>  N 	-1.201178 		-0.989148 		0.000000
| 48>  N 	2.278974 		1.024187 		0.000000
| 49> *
| 50>
| 51>                          ****END OF INPUT****

CARTESIAN COORDINATES (ANGSTROEM)
---------------------------------
  H     -2.068662   -1.458962    0.000000
  H     -0.127775   -2.835470    0.000000
  H      2.119426   -1.687305    0.000000
  H      3.221438    0.535051    0.000000
  H      2.281400    2.004352    0.000000
  C     -0.014585   -1.755436    0.000000
  C      1.191082   -1.128754    0.000000
  C      1.153247    0.308906    0.000000
  C     -1.181375    0.401075    0.000000
  O     -2.268911    0.968987    0.000000
  N      0.046198    1.028846    0.000000
  N     -1.154980   -1.018432    0.000000
  N      2.325172    0.994903    0.000000

 Total Charge           Charge          ....    0
 Multiplicity           Mult            ....    1
 Number of Electrons    NEL             ....   58
 Basis Dimension        Dim             ....  182

ORBITAL ENERGIES
----------------

  NO   OCC          E(Eh)            E(eV)    Irrep
   0   2.0000     -20.541378      -558.9593    1-A'
   1   2.0000     -15.632811      -425.3904    2-A'
   2   2.0000     -15.598949      -424.4690    3-A'
   3   2.0000     -15.550271      -423.1444    4-A'
   4   2.0000     -11.343629      -308.6759    5-A'
   5   2.0000     -11.295621      -307.3695    6-A'
   6   2.0000     -11.286241      -307.1142    7-A'
   7   2.0000     -11.236598      -305.7634    8-A'
   8   2.0000      -1.398312       -38.0500    9-A'
   9   2.0000      -1.295530       -35.2532   10-A'
  10   2.0000      -1.257198       -34.2101   11-A'
  11   2.0000      -1.165588       -31.7173   12-A'
  12   2.0000      -1.051584       -28.6150   13-A'
  13   2.0000      -0.890007       -24.2183   14-A'
  14   2.0000      -0.874615       -23.7995   15-A'
  15   2.0000      -0.759492       -20.6668   16-A'
  16   2.0000      -0.753732       -20.5101   17-A'
  17   2.0000      -0.714937       -19.4544   18-A'
  18   2.0000      -0.675358       -18.3774   19-A'
  19   2.0000      -0.634813       -17.2742   20-A'
  20   2.0000      -0.597398       -16.2560   21-A'
  21   2.0000      -0.593604       -16.1528   22-A'
  22   2.0000      -0.469943       -12.7878   23-A'
  23   2.0000      -0.428394       -11.6572   24-A'
  24   0.0888       0.349759         9.5174    1-A"
  25   0.4138       0.125552         3.4165    2-A"
  26   0.6022       0.044617         1.2141    3-A"
  27   1.5087      -0.282203        -7.6791    4-A"
  28   1.6453      -0.327067        -8.8999    5-A"
  29   1.8140      -0.464895       -12.6504    6-A"
  30   1.9597      -0.542851       -14.7717    7-A"
  31   1.9674      -0.565854       -15.3977    8-A"
  32   0.0000       0.126359         3.4384   25-A'
  33   0.0000       0.136530         3.7152   26-A'
  34   0.0000       0.167706         4.5635   27-A'
  35   0.0000       0.188001         5.1158   28-A'
  36   0.0000       0.207180         5.6377   29-A'

MULLIKEN ATOMIC CHARGES
-----------------------
   0 H :    0.272676
   1 H :    0.124622
   2 H :    0.145066
   3 H :    0.248872
   4 H :    0.265764
   5 C :   -0.159370
   6 C :   -0.100073
   7 C :   -0.033575
   8 C :    0.139105
   9 O :   -0.347270
  10 N :   -0.077623
  11 N :   -0.147798
  12 N :   -0.330397
Sum of atomic charges:   -0.0000000

LOEWDIN ATOMIC CHARGES
----------------------
   0 H :    0.153923
   1 H :    0.074063
   2 H :    0.076799
   3 H :    0.132759
   4 H :    0.142337
   5 C :    0.014252
   6 C :   -0.154458
   7 C :    0.020353
   8 C :    0.112631
   9 O :   -0.240483
  10 N :   -0.193479
  11 N :   -0.047987
  12 N :   -0.090708

  Mayer bond orders larger than 0.100000
B(  0-H , 11-N ) :   0.9006 B(  1-H ,  5-C ) :   0.9779 B(  2-H ,  6-C ) :   0.9376
B(  3-H , 12-N ) :   0.9265 B(  4-H , 12-N ) :   0.9079 B(  5-C ,  6-C ) :   1.2215
B(  5-C , 11-N ) :   1.1596 B(  6-C ,  7-C ) :   1.1583 B(  6-C , 11-N ) :  -0.1123
B(  7-C , 10-N ) :   1.3089 B(  7-C , 12-N ) :   1.0670 B(  8-C ,  9-O ) :   1.5565
B(  8-C , 10-N ) :   1.2579 B(  8-C , 11-N ) :   0.9572

E(0)                                       ... -392.79644907
E(CORR)                                    ...  -0.96642835
E(0)                                       ... -392.61007982
E(CORR)                                    ...  -0.97023522
E(0)                                       ... -392.56444690
E(CORR)                                    ...  -0.97360037
E(0)                                       ... -392.50730296
E(CORR)                                    ...  -0.98266836
E(0)                                       ... -392.50239477
E(CORR)                                    ...  -0.98044014
E(0)                                       ... -392.47056958
E(CORR)                                    ...  -0.97539404
FINAL SINGLE POINT ENERGY      -393.762877420259

DIPOLE MOMENT
-------------
                                X             Y             Z
Electronic contribution:     -3.48154       1.61142       0.00000
Nuclear contribution   :      5.06353      -3.20965       0.00000
                        -----------------------------------------
Total Dipole Moment    :      1.58199      -1.59823       0.00000
                        -----------------------------------------
Magnitude (a.u.)       :      2.24878
Magnitude (Debye)      :      5.71595

Rotational constants in cm-1:     0.128680     0.067098     0.044102
Rotational constants in MHz :  3857.734772  2011.552363  1322.142761

                             ****ORCA TERMINATED NORMALLY****
TOTAL RUN TIME: 0 days 21 hours 21 minutes 10 seconds 282 msec
