                         Program Version 5.0.0 -  RELEASE  -
|  1> ! TZVP Usesym MOread
|  2> %moinp	"cytosine-RHF.gbw"
|  3>
|  4> %pal
|  5> 	nprocs	32
|  6> end
|  7>
|  8> %scf
|  9>     rotate
| 10>         {20,22} {30,33} {31,38}
| 11>     end
| 12> end
| 13>
| 14> %casscf
| 15>     nel         14
| 16>     norb        10
| 17>     mult        1,1
| 18>     irrep       0,1
| 19>     Nroots      1,2
| 20>     bweight=    1,2
| 21>     weights[0]= 1
| 22>     weights[1]= 1,1
| 23>     etol    1e-9
| 24>     gtol    1e-5
| 25> end
| 26>
| 27> %autoCI
| 28>     CItype      FICMRCI
| 29> 	nel	        14
| 30> 	norb        10
| 31> 	irrep       0,1
| 32>     mult        1,1
| 33>     NRoots      1,2
| 34> end
| 35>
| 36> # cytosine
| 37>
| 38> *xyz 0 1
| 39>  H 	-2.114860 		-1.429678 		0.000000
| 40>  H 	-0.173973 		-2.806186 		0.000000
| 41>  H 	2.073228 		-1.658021 		0.000000
| 42>  H 	3.175240 		0.564335 		0.000000
| 43>  H 	2.235202 		2.033636 		0.000000
| 44>  C 	-0.060783 		-1.726152 		0.000000
| 45>  C 	1.144884 		-1.099470 		0.000000
| 46>  C 	1.107049 		0.338190 		0.000000
| 47>  C 	-1.227573 		0.430359 		0.000000
| 48>  O 	-2.315109 		0.998271 		0.000000
| 49>  N 	0.000000 		1.058130 		0.000000
| 50>  N 	-1.201178 		-0.989148 		0.000000
| 51>  N 	2.278974 		1.024187 		0.000000
| 52> *
| 53>
| 54>                          ****END OF INPUT****

CARTESIAN COORDINATES (ANGSTROEM)
---------------------------------
  H     -2.068662   -1.458962    0.000000
  H     -0.127775   -2.835470    0.000000
  H      2.119426   -1.687305    0.000000
  H      3.221438    0.535051    0.000000
  H      2.281400    2.004352    0.000000
  C     -0.014585   -1.755436    0.000000
  C      1.191082   -1.128754    0.000000
  C      1.153247    0.308906    0.000000
  C     -1.181375    0.401075    0.000000
  O     -2.268911    0.968987    0.000000
  N      0.046198    1.028846    0.000000
  N     -1.154980   -1.018432    0.000000
  N      2.325172    0.994903    0.000000

 Total Charge           Charge          ....    0
 Multiplicity           Mult            ....    1
 Number of Electrons    NEL             ....   58
 Basis Dimension        Dim             ....  182

ORBITAL ENERGIES
----------------

  NO   OCC          E(Eh)            E(eV)    Irrep
   0   2.0000     -20.586192      -560.1788    1-A'
   1   2.0000     -15.599830      -424.4929    2-A'
   2   2.0000     -15.583715      -424.0544    3-A'
   3   2.0000     -15.560085      -423.4114    4-A'
   4   2.0000     -11.365504      -309.2711    5-A'
   5   2.0000     -11.291638      -307.2611    6-A'
   6   2.0000     -11.267477      -306.6036    7-A'
   7   2.0000     -11.229938      -305.5822    8-A'
   8   2.0000      -1.426763       -38.8242    9-A'
   9   2.0000      -1.295037       -35.2397   10-A'
  10   2.0000      -1.241293       -33.7773   11-A'
  11   2.0000      -1.162542       -31.6344   12-A'
  12   2.0000      -1.041399       -28.3379   13-A'
  13   2.0000      -0.879657       -23.9367   14-A'
  14   2.0000      -0.872010       -23.7286   15-A'
  15   2.0000      -0.745451       -20.2848   16-A'
  16   2.0000      -0.737197       -20.0602   17-A'
  17   2.0000      -0.709599       -19.3092   18-A'
  18   2.0000      -0.656546       -17.8655   19-A'
  19   2.0000      -0.649855       -17.6835   20-A'
  20   2.0000      -0.591547       -16.0968   21-A'
  21   2.0000      -0.573359       -15.6019   22-A'
  22   0.0674       0.344918         9.3857    1-A"
  23   0.1694       0.182740         4.9726    2-A"
  24   0.6883       0.038890         1.0583    3-A"
  25   1.6561      -0.395283       -10.7562   23-A'
  26   1.6765      -0.418885       -11.3984   24-A'
  27   1.8636      -0.369404       -10.0520    4-A"
  28   1.9317      -0.435688       -11.8557    5-A"
  29   1.9559      -0.540954       -14.7201    6-A"
  30   1.9931      -0.542345       -14.7580    7-A"
  31   1.9980      -0.479137       -13.0380    8-A"
  32   0.0000       0.134891         3.6706   25-A'
  33   0.0000       0.144512         3.9324   26-A'
  34   0.0000       0.172669         4.6986   27-A'
  35   0.0000       0.194707         5.2983   28-A'
  36   0.0000       0.209861         5.7106   29-A'

MULLIKEN ATOMIC CHARGES
-----------------------
   0 H :    0.265421
   1 H :    0.114265
   2 H :    0.135130
   3 H :    0.241558
   4 H :    0.248160
   5 C :   -0.162645
   6 C :   -0.057928
   7 C :   -0.003982
   8 C :    0.216197
   9 O :   -0.268980
  10 N :   -0.061733
  11 N :   -0.244235
  12 N :   -0.421229
Sum of atomic charges:    0.0000000

LOEWDIN ATOMIC CHARGES
----------------------
   0 H :    0.145762
   1 H :    0.072112
   2 H :    0.079597
   3 H :    0.126689
   4 H :    0.130950
   5 C :    0.002340
   6 C :   -0.128598
   7 C :    0.023195
   8 C :    0.153751
   9 O :   -0.155286
  10 N :   -0.124096
  11 N :   -0.145305
  12 N :   -0.181111

  Mayer bond orders larger than 0.100000
B(  0-H , 11-N ) :   0.9102 B(  1-H ,  5-C ) :   0.9732 B(  2-H ,  6-C ) :   0.9404
B(  3-H , 12-N ) :   0.9354 B(  4-H , 12-N ) :   0.9242 B(  5-C ,  6-C ) :   1.5588
B(  5-C , 11-N ) :   1.0598 B(  6-C ,  7-C ) :   1.1897 B(  7-C , 10-N ) :   1.2840
B(  7-C , 12-N ) :   1.0374 B(  8-C ,  9-O ) :   1.5425 B(  8-C , 10-N ) :   1.2437
B(  8-C , 11-N ) :   0.9857

E(0)                                       ... -392.79727938
E(CORR)                                    ...  -0.96220063
E(0)                                       ... -392.60815987
E(CORR)                                    ...  -0.95853766
E(0)                                       ... -392.59725839
E(CORR)                                    ...  -0.95783856
FINAL SINGLE POINT ENERGY      -393.759480008783

DIPOLE MOMENT
-------------
                                X             Y             Z
Electronic contribution:     -4.09558       2.07533       0.00000
Nuclear contribution   :      5.06353      -3.20965       0.00000
                        -----------------------------------------
Total Dipole Moment    :      0.96795      -1.13432       0.00000
                        -----------------------------------------
Magnitude (a.u.)       :      1.49118
Magnitude (Debye)      :      3.79027

Rotational constants in cm-1:     0.128680     0.067098     0.044102
Rotational constants in MHz :  3857.734772  2011.552363  1322.142761

                             ****ORCA TERMINATED NORMALLY****
TOTAL RUN TIME: 1 days 8 hours 32 minutes 32 seconds 205 msec
