                         Program Version 5.0.0 -  RELEASE  -
|  1> ! cc-pvtz RIJK cc-pvtz/JK pal8 UseSym
|  2> ! MOread
|  3>
|  4> %moinp "trans-1,3-bivinyl-rhf.gbw"
|  5>
|  6> %scf
|  7>     rotate {16,19,90}  end
|  8> end
|  9>
| 10> %casscf
| 11>     nel     4
| 12>     norb    4
| 13>     irrep   0
| 14>     mult    1
| 15>     nroots  1
| 16> end
| 17>
| 18> *xyz 0 1
| 19>  C   -6.64118154871840     -1.62152199820221     -0.00000009697356
| 20>  H   -6.14278421708044     -2.59598105665497     -0.00000014220472
| 21>  H   -7.73333554424968     -1.61977238029341     -0.00000042278070
| 22>  C   -5.93549956067656     -0.47904328673011      0.00000030766916
| 23>  H   -6.46384951769643      0.48219250457623      0.00000027918139
| 24>  C   -4.47901443536966     -0.41544209462766      0.00000033271928
| 25>  H   -3.95066484182954     -1.37667808135024      0.00000039582290
| 26>  C   -3.77333222954333      0.72703646535930     -0.00000006376917
| 27>  H   -4.27172926240940      1.70149564387711     -0.00000005020219
| 28>  H   -2.68117824242655      0.72528655404596     -0.00000053946240
| 29> *
| 30>
| 31>
| 32>                          ****END OF INPUT****

CARTESIAN COORDINATES (ANGSTROEM)
---------------------------------
  C     -1.433925   -1.174279   -0.000000
  H     -0.935527   -2.148738   -0.000000
  H     -2.526079   -1.172529    0.000000
  C     -0.728243   -0.031801    0.000000
  H     -1.256592    0.929435    0.000000
  C      0.728243    0.031801    0.000000
  H      1.256592   -0.929435    0.000000
  C      1.433925    1.174279   -0.000000
  H      0.935527    2.148738   -0.000000
  H      2.526079    1.172529    0.000000

 Total Charge           Charge          ....    0
 Multiplicity           Mult            ....    1
 Number of Electrons    NEL             ....   30
 Basis Dimension        Dim             ....  204

ORBITAL ENERGIES
----------------

  NO   OCC          E(Eh)            E(eV)    Irrep
   0   2.0000     -11.228194      -305.5347    1-Ag
   1   2.0000     -11.227371      -305.5123    1-Bu
   2   2.0000     -11.219750      -305.3049    2-Ag
   3   2.0000     -11.219740      -305.3047    2-Bu
   4   2.0000      -1.082607       -29.4592    3-Ag
   5   2.0000      -0.991475       -26.9794    3-Bu
   6   2.0000      -0.818681       -22.2774    4-Ag
   7   2.0000      -0.745039       -20.2735    4-Bu
   8   2.0000      -0.635892       -17.3035    5-Bu
   9   2.0000      -0.626114       -17.0374    5-Ag
  10   2.0000      -0.550116       -14.9694    6-Ag
  11   2.0000      -0.536354       -14.5949    6-Bu
  12   2.0000      -0.486387       -13.2353    7-Ag
  13   0.1177       0.148343         4.0366    1-Au
  14   0.0605       0.328483         8.9385    1-Bg
  15   1.9347      -0.429203       -11.6792    2-Au
  16   1.8871      -0.306307        -8.3350    2-Bg
  17   0.0000       0.160258         4.3608    8-Ag
  18   0.0000       0.164578         4.4784    7-Bu
  19   0.0000       0.171921         4.6782    8-Bu
  20   0.0000       0.215346         5.8599    9-Ag
  21   0.0000       0.225335         6.1317   10-Ag

MULLIKEN ATOMIC CHARGES
-----------------------
   0 C :   -0.315646
   1 H :    0.125626
   2 H :    0.132087
   3 C :   -0.080570
   4 H :    0.138504
   5 C :   -0.080570
   6 H :    0.138504
   7 C :   -0.315646
   8 H :    0.125626
   9 H :    0.132087
Sum of atomic charges:   -0.0000000

LOEWDIN ATOMIC CHARGES
----------------------
   0 C :    0.096948
   1 H :   -0.040065
   2 H :   -0.039813
   3 C :    0.004896
   4 H :   -0.021966
   5 C :    0.004896
   6 H :   -0.021966
   7 C :    0.096948
   8 H :   -0.040065
   9 H :   -0.039813

  Mayer bond orders larger than 0.100000
B(  0-C ,  1-H ) :   0.9733 B(  0-C ,  2-H ) :   0.9822 B(  0-C ,  3-C ) :   1.6728
B(  3-C ,  4-H ) :   0.9615 B(  3-C ,  5-C ) :   1.0157 B(  5-C ,  6-H ) :   0.9615
B(  5-C ,  7-C ) :   1.6728 B(  7-C ,  8-H ) :   0.9733 B(  7-C ,  9-H ) :   0.9822

FINAL SINGLE POINT ENERGY      -155.030051202870

DIPOLE MOMENT
-------------
                                X             Y             Z
Electronic contribution:     -0.00000      -0.00000       0.00000
Nuclear contribution   :      0.00000       0.00000      -0.00000
                        -----------------------------------------
Total Dipole Moment    :     -0.00000      -0.00000       0.00000
                        -----------------------------------------
Magnitude (a.u.)       :      0.00000
Magnitude (Debye)      :      0.00000

Rotational constants in cm-1:     1.397081     0.146782     0.132827
Rotational constants in MHz : 41883.422262  4400.413202  3982.046052

                             ****ORCA TERMINATED NORMALLY****
TOTAL RUN TIME: 0 days 0 hours 0 minutes 8 seconds 325 msec
