                         Program Version 5.0.0 -  RELEASE  -
|  1> ! MP2 aug-cc-pVQZ pal8 VeryTightSCF UseSym MOread
|  2>
|  3> %moinp "BH-0.9-O.gbw"
|  4>
|  5> *xyz 0 1
|  6>  B	0.0	0.0	0.0
|  7>  H	0.9	0.0	0.0
|  8> **                         ****END OF INPUT****

CARTESIAN COORDINATES (ANGSTROEM)
---------------------------------
  B      0.000000    0.000000   -0.076764
  H      0.000000    0.000000    0.823236

 Total Charge           Charge          ....    0
 Multiplicity           Mult            ....    1
 Number of Electrons    NEL             ....    6
 Basis Dimension        Dim             ....  126

ORBITAL ENERGIES
----------------

  NO   OCC          E(Eh)            E(eV)    Irrep
   0   2.0000      -7.648266      -208.1199    1-A1
   1   2.0000      -0.748277       -20.3616    2-A1
   2   2.0000      -0.340267        -9.2591    3-A1
   3   0.0000       0.024789         0.6745    1-B1
   4   0.0000       0.024789         0.6745    1-B2
   5   0.0000       0.027725         0.7544    4-A1
   6   0.0000       0.044485         1.2105    5-A1
   7   0.0000       0.079447         2.1619    2-B2

MULLIKEN ATOMIC CHARGES
-----------------------
   0 B :   -0.029383
   1 H :    0.029383
Sum of atomic charges:    0.0000000

LOEWDIN ATOMIC CHARGES
----------------------
   0 B :    0.673224
   1 H :   -0.673224

  Mayer bond orders larger than 0.100000
B(  0-B ,  1-H ) :   0.7739

MP2 TOTAL ENERGY:      -25.138096661 Eh
FINAL SINGLE POINT ENERGY       -25.138096661407

DIPOLE MOMENT
-------------
                                X             Y             Z
Electronic contribution:     -0.00000       0.00000       0.15911
Nuclear contribution   :      0.00000       0.00000       0.83037
                        -----------------------------------------
Total Dipole Moment    :     -0.00000       0.00000       0.98948
                        -----------------------------------------
Magnitude (a.u.)       :      0.98948
Magnitude (Debye)      :      2.51505

Rotational constants in cm-1:     0.000000    22.571979    22.571979
Rotational constants in MHz :     0.000000 676690.913138 676690.913138

                             ****ORCA TERMINATED NORMALLY****
TOTAL RUN TIME: 0 days 0 hours 0 minutes 3 seconds 197 msec
