                         Program Version 5.0.0 -  RELEASE  -
|  1> ! MP2 aug-cc-pVQZ pal8 VeryTightSCF UseSym MOread
|  2>
|  3> %moinp "BH-1.8-O.gbw"
|  4>
|  5> *xyz 0 1
|  6>  B	0.0	0.0	0.0
|  7>  H	1.8	0.0	0.0
|  8> **                         ****END OF INPUT****

CARTESIAN COORDINATES (ANGSTROEM)
---------------------------------
  B      0.000000    0.000000   -0.153529
  H      0.000000    0.000000    1.646471

 Total Charge           Charge          ....    0
 Multiplicity           Mult            ....    1
 Number of Electrons    NEL             ....    6
 Basis Dimension        Dim             ....  126

ORBITAL ENERGIES
----------------

  NO   OCC          E(Eh)            E(eV)    Irrep
   0   2.0000      -7.756769      -211.0724    1-A1
   1   2.0000      -0.561461       -15.2781    2-A1
   2   2.0000      -0.347270        -9.4497    3-A1
   3   0.0000       0.016732         0.4553    1-B1
   4   0.0000       0.016732         0.4553    1-B2
   5   0.0000       0.031748         0.8639    4-A1
   6   0.0000       0.050371         1.3707    5-A1
   7   0.0000       0.069772         1.8986    2-B2

MULLIKEN ATOMIC CHARGES
-----------------------
   0 B :    0.170856
   1 H :   -0.170856
Sum of atomic charges:   -0.0000000

LOEWDIN ATOMIC CHARGES
----------------------
   0 B :    0.311436
   1 H :   -0.311436

  Mayer bond orders larger than 0.100000
B(  0-B ,  1-H ) :   0.9786

MP2 TOTAL ENERGY:      -25.156650087 Eh
FINAL SINGLE POINT ENERGY       -25.156650086642

DIPOLE MOMENT
-------------
                                X             Y             Z
Electronic contribution:     -0.00000      -0.00000      -1.82754
Nuclear contribution   :      0.00000       0.00000       1.66075
                        -----------------------------------------
Total Dipole Moment    :     -0.00000      -0.00000      -0.16679
                        -----------------------------------------
Magnitude (a.u.)       :      0.16679
Magnitude (Debye)      :      0.42395

Rotational constants in cm-1:     0.000000     5.642995     5.642995
Rotational constants in MHz :     0.000000 169172.728284 169172.728284

                             ****ORCA TERMINATED NORMALLY****
TOTAL RUN TIME: 0 days 0 hours 0 minutes 3 seconds 230 msec
