                         Program Version 5.0.0 -  RELEASE  -
|  1> ! MP2 aug-cc-pVQZ pal8 VeryTightSCF UseSym MOread
|  2>
|  3> %moinp "BH-1.4-O.gbw"
|  4>
|  5> *xyz 0 1
|  6>  B	0.0	0.0	0.0
|  7>  H	1.4	0.0	0.0
|  8> **                         ****END OF INPUT****

CARTESIAN COORDINATES (ANGSTROEM)
---------------------------------
  B      0.000000    0.000000   -0.119411
  H      0.000000    0.000000    1.280589

 Total Charge           Charge          ....    0
 Multiplicity           Mult            ....    1
 Number of Electrons    NEL             ....    6
 Basis Dimension        Dim             ....  126

ORBITAL ENERGIES
----------------

  NO   OCC          E(Eh)            E(eV)    Irrep
   0   2.0000      -7.707646      -209.7357    1-A1
   1   2.0000      -0.610881       -16.6229    2-A1
   2   2.0000      -0.351951        -9.5771    3-A1
   3   0.0000       0.022830         0.6212    1-B1
   4   0.0000       0.022830         0.6212    1-B2
   5   0.0000       0.032133         0.8744    4-A1
   6   0.0000       0.046344         1.2611    5-A1
   7   0.0000       0.076858         2.0914    2-B1

MULLIKEN ATOMIC CHARGES
-----------------------
   0 B :    0.150033
   1 H :   -0.150033
Sum of atomic charges:    0.0000000

LOEWDIN ATOMIC CHARGES
----------------------
   0 B :    0.427683
   1 H :   -0.427683

  Mayer bond orders larger than 0.100000
B(  0-B ,  1-H ) :   0.9279

MP2 TOTAL ENERGY:      -25.201450123 Eh
FINAL SINGLE POINT ENERGY       -25.201450122629

DIPOLE MOMENT
-------------
                                X             Y             Z
Electronic contribution:      0.00000       0.00000      -0.82606
Nuclear contribution   :      0.00000       0.00000       1.29169
                        -----------------------------------------
Total Dipole Moment    :      0.00000       0.00000       0.46563
                        -----------------------------------------
Magnitude (a.u.)       :      0.46563
Magnitude (Debye)      :      1.18353

Rotational constants in cm-1:     0.000000     9.328216     9.328216
Rotational constants in MHz :     0.000000 279652.877368 279652.877368

                             ****ORCA TERMINATED NORMALLY****
TOTAL RUN TIME: 0 days 0 hours 0 minutes 3 seconds 254 msec
