                         Program Version 5.0.0 -  RELEASE  -
|  1> ! MP2 aug-cc-pVQZ pal8 VeryTightSCF UseSym MOread
|  2>
|  3> %moinp "BH-1.2-O.gbw"
|  4>
|  5> *xyz 0 1
|  6>  B	0.0	0.0	0.0
|  7>  H	1.2	0.0	0.0
|  8> **                         ****END OF INPUT****

CARTESIAN COORDINATES (ANGSTROEM)
---------------------------------
  B      0.000000    0.000000   -0.102352
  H      0.000000    0.000000    1.097648

 Total Charge           Charge          ....    0
 Multiplicity           Mult            ....    1
 Number of Electrons    NEL             ....    6
 Basis Dimension        Dim             ....  126

ORBITAL ENERGIES
----------------

  NO   OCC          E(Eh)            E(eV)    Irrep
   0   2.0000      -7.681657      -209.0285    1-A1
   1   2.0000      -0.657652       -17.8956    2-A1
   2   2.0000      -0.347415        -9.4536    3-A1
   3   0.0000       0.024160         0.6574    1-B2
   4   0.0000       0.024160         0.6574    1-B1
   5   0.0000       0.030574         0.8320    4-A1
   6   0.0000       0.045528         1.2389    5-A1
   7   0.0000       0.078962         2.1487    2-B2

MULLIKEN ATOMIC CHARGES
-----------------------
   0 B :    0.110917
   1 H :   -0.110917
Sum of atomic charges:   -0.0000000

LOEWDIN ATOMIC CHARGES
----------------------
   0 B :    0.508386
   1 H :   -0.508386

  Mayer bond orders larger than 0.100000
B(  0-B ,  1-H ) :   0.8797

MP2 TOTAL ENERGY:      -25.209788335 Eh
FINAL SINGLE POINT ENERGY       -25.209788334541

DIPOLE MOMENT
-------------
                                X             Y             Z
Electronic contribution:     -0.00000       0.00000      -0.38432
Nuclear contribution   :      0.00000       0.00000       1.10716
                        -----------------------------------------
Total Dipole Moment    :     -0.00000       0.00000       0.72285
                        -----------------------------------------
Magnitude (a.u.)       :      0.72285
Magnitude (Debye)      :      1.83734

Rotational constants in cm-1:     0.000000    12.696738    12.696738
Rotational constants in MHz :     0.000000 380638.638640 380638.638640

                             ****ORCA TERMINATED NORMALLY****
TOTAL RUN TIME: 0 days 0 hours 0 minutes 3 seconds 311 msec
