                         Program Version 5.0.0 -  RELEASE  -
|  1> ! MP2 aug-cc-pVQZ pal8 VeryTightSCF UseSym MOread
|  2>
|  3> %moinp "BH-2.6-O.gbw"
|  4>
|  5> *xyz 0 1
|  6>  B	0.0	0.0	0.0
|  7>  H	2.6	0.0	0.0
|  8> **                         ****END OF INPUT****

CARTESIAN COORDINATES (ANGSTROEM)
---------------------------------
  B      0.000000    0.000000   -0.221763
  H      0.000000    0.000000    2.378237

 Total Charge           Charge          ....    0
 Multiplicity           Mult            ....    1
 Number of Electrons    NEL             ....    6
 Basis Dimension        Dim             ....  126

ORBITAL ENERGIES
----------------

  NO   OCC          E(Eh)            E(eV)    Irrep
   0   2.0000      -7.831917      -213.1173    1-A1
   1   2.0000      -0.573888       -15.6163    2-A1
   2   2.0000      -0.296829        -8.0771    3-A1
   3   0.0000      -0.007923        -0.2156    1-B2
   4   0.0000      -0.007923        -0.2156    1-B1
   5   0.0000       0.005309         0.1445    4-A1
   6   0.0000       0.041573         1.1313    5-A1
   7   0.0000       0.055860         1.5200    2-B2

MULLIKEN ATOMIC CHARGES
-----------------------
   0 B :    0.243102
   1 H :   -0.243102
Sum of atomic charges:    0.0000000

LOEWDIN ATOMIC CHARGES
----------------------
   0 B :    0.218328
   1 H :   -0.218328

  Mayer bond orders larger than 0.100000
B(  0-B ,  1-H ) :   0.9481

MP2 TOTAL ENERGY:      -25.076387783 Eh
FINAL SINGLE POINT ENERGY       -25.076387783425

DIPOLE MOMENT
-------------
                                X             Y             Z
Electronic contribution:      0.00000      -0.00000      -3.87777
Nuclear contribution   :      0.00000       0.00000       2.39886
                        -----------------------------------------
Total Dipole Moment    :      0.00000      -0.00000      -1.47891
                        -----------------------------------------
Magnitude (a.u.)       :      1.47891
Magnitude (Debye)      :      3.75909

Rotational constants in cm-1:     0.000000     2.704631     2.704631
Rotational constants in MHz :     0.000000 81082.786929 81082.786929

                             ****ORCA TERMINATED NORMALLY****
TOTAL RUN TIME: 0 days 0 hours 0 minutes 3 seconds 151 msec
