                         Program Version 5.0.0 -  RELEASE  -
|  1> ! MP2 aug-cc-pVQZ pal8 VeryTightSCF UseSym MOread
|  2>
|  3> %moinp "BH-2.4-O.gbw"
|  4>
|  5> *xyz 0 1
|  6>  B	0.0	0.0	0.0
|  7>  H	2.4	0.0	0.0
|  8> **                         ****END OF INPUT****

CARTESIAN COORDINATES (ANGSTROEM)
---------------------------------
  B      0.000000    0.000000   -0.204705
  H      0.000000    0.000000    2.195295

 Total Charge           Charge          ....    0
 Multiplicity           Mult            ....    1
 Number of Electrons    NEL             ....    6
 Basis Dimension        Dim             ....  126

ORBITAL ENERGIES
----------------

  NO   OCC          E(Eh)            E(eV)    Irrep
   0   2.0000      -7.816448      -212.6964    1-A1
   1   2.0000      -0.565587       -15.3904    2-A1
   2   2.0000      -0.309873        -8.4321    3-A1
   3   0.0000      -0.000974        -0.0265    1-B1
   4   0.0000      -0.000974        -0.0265    1-B2
   5   0.0000       0.017102         0.4654    4-A1
   6   0.0000       0.049013         1.3337    5-A1
   7   0.0000       0.058722         1.5979    2-B2

MULLIKEN ATOMIC CHARGES
-----------------------
   0 B :    0.214710
   1 H :   -0.214710
Sum of atomic charges:   -0.0000000

LOEWDIN ATOMIC CHARGES
----------------------
   0 B :    0.226183
   1 H :   -0.226183

  Mayer bond orders larger than 0.100000
B(  0-B ,  1-H ) :   0.9618

MP2 TOTAL ENERGY:      -25.092997415 Eh
FINAL SINGLE POINT ENERGY       -25.092997414627

DIPOLE MOMENT
-------------
                                X             Y             Z
Electronic contribution:      0.00000       0.00000      -3.38315
Nuclear contribution   :      0.00000       0.00000       2.21433
                        -----------------------------------------
Total Dipole Moment    :      0.00000       0.00000      -1.16883
                        -----------------------------------------
Magnitude (a.u.)       :      1.16883
Magnitude (Debye)      :      2.97092

Rotational constants in cm-1:     0.000000     3.174185     3.174185
Rotational constants in MHz :     0.000000 95159.659660 95159.659660

                             ****ORCA TERMINATED NORMALLY****
TOTAL RUN TIME: 0 days 0 hours 0 minutes 3 seconds 168 msec
