                         Program Version 5.0.0 -  RELEASE  -
|  1> ! MP2 aug-cc-pVQZ pal8 VeryTightSCF UseSym MOread
|  2>
|  3> %moinp "BH-3.0-O.gbw"
|  4>
|  5> *xyz 0 1
|  6>  B	0.0	0.0	0.0
|  7>  H	3.0	0.0	0.0
|  8> **                         ****END OF INPUT****

CARTESIAN COORDINATES (ANGSTROEM)
---------------------------------
  B      0.000000    0.000000   -0.255881
  H      0.000000    0.000000    2.744119

 Total Charge           Charge          ....    0
 Multiplicity           Mult            ....    1
 Number of Electrons    NEL             ....    6
 Basis Dimension        Dim             ....  126

ORBITAL ENERGIES
----------------

  NO   OCC          E(Eh)            E(eV)    Irrep
   0   2.0000      -7.856440      -213.7846    1-A1
   1   2.0000      -0.590609       -16.0713    2-A1
   2   2.0000      -0.274468        -7.4686    3-A1
   3   0.0000      -0.021904        -0.5960    4-A1
   4   0.0000      -0.021209        -0.5771    1-B1
   5   0.0000      -0.021209        -0.5771    1-B2
   6   0.0000       0.033090         0.9004    5-A1
   7   0.0000       0.051232         1.3941    2-B1

MULLIKEN ATOMIC CHARGES
-----------------------
   0 B :    0.305399
   1 H :   -0.305399
Sum of atomic charges:   -0.0000000

LOEWDIN ATOMIC CHARGES
----------------------
   0 B :    0.229855
   1 H :   -0.229855

  Mayer bond orders larger than 0.100000
B(  0-B ,  1-H ) :   0.9136

MP2 TOTAL ENERGY:      -25.049986348 Eh
FINAL SINGLE POINT ENERGY       -25.049986348177

DIPOLE MOMENT
-------------
                                X             Y             Z
Electronic contribution:      0.00000      -0.00000      -4.81549
Nuclear contribution   :      0.00000       0.00000       2.76791
                        -----------------------------------------
Total Dipole Moment    :      0.00000      -0.00000      -2.04758
                        -----------------------------------------
Magnitude (a.u.)       :      2.04758
Magnitude (Debye)      :      5.20454

Rotational constants in cm-1:     0.000000     2.031478     2.031478
Rotational constants in MHz :     0.000000 60902.182182 60902.182182

                             ****ORCA TERMINATED NORMALLY****
TOTAL RUN TIME: 0 days 0 hours 0 minutes 3 seconds 92 msec
