                         Program Version 5.0.0 -  RELEASE  -
|  1> ! MP2 aug-cc-pVQZ pal8 VeryTightSCF UseSym MOread
|  2>
|  3> %moinp "BH-3.2-O.gbw"
|  4>
|  5> *xyz 0 1
|  6>  B	0.0	0.0	0.0
|  7>  H	3.2	0.0	0.0
|  8> **                         ****END OF INPUT****

CARTESIAN COORDINATES (ANGSTROEM)
---------------------------------
  B      0.000000    0.000000   -0.272940
  H      0.000000    0.000000    2.927060

 Total Charge           Charge          ....    0
 Multiplicity           Mult            ....    1
 Number of Electrons    NEL             ....    6
 Basis Dimension        Dim             ....  126

ORBITAL ENERGIES
----------------

  NO   OCC          E(Eh)            E(eV)    Irrep
   0   2.0000      -7.865800      -214.0393    1-A1
   1   2.0000      -0.597997       -16.2723    2-A1
   2   2.0000      -0.265200        -7.2165    3-A1
   3   0.0000      -0.034187        -0.9303    4-A1
   4   0.0000      -0.027118        -0.7379    1-B1
   5   0.0000      -0.027118        -0.7379    1-B2
   6   0.0000       0.030526         0.8307    5-A1
   7   0.0000       0.049336         1.3425    2-B2

MULLIKEN ATOMIC CHARGES
-----------------------
   0 B :    0.331018
   1 H :   -0.331018
Sum of atomic charges:    0.0000000

LOEWDIN ATOMIC CHARGES
----------------------
   0 B :    0.244871
   1 H :   -0.244871

  Mayer bond orders larger than 0.100000
B(  0-B ,  1-H ) :   0.8963

MP2 TOTAL ENERGY:      -25.039924469 Eh
FINAL SINGLE POINT ENERGY       -25.039924469097

DIPOLE MOMENT
-------------
                                X             Y             Z
Electronic contribution:     -0.00000      -0.00000      -5.25845
Nuclear contribution   :      0.00000       0.00000       2.95244
                        -----------------------------------------
Total Dipole Moment    :     -0.00000      -0.00000      -2.30601
                        -----------------------------------------
Magnitude (a.u.)       :      2.30601
Magnitude (Debye)      :      5.86141

Rotational constants in cm-1:     0.000000     1.785479     1.785479
Rotational constants in MHz :     0.000000 53527.308559 53527.308559

                             ****ORCA TERMINATED NORMALLY****
TOTAL RUN TIME: 0 days 0 hours 0 minutes 3 seconds 100 msec
