                         Program Version 5.0.0 -  RELEASE  -
|  1> ! MP2 aug-cc-pVQZ pal8 VeryTightSCF UseSym MOread
|  2>
|  3> %moinp "BH-3.4-O.gbw"
|  4>
|  5> *xyz 0 1
|  6>  B	0.0	0.0	0.0
|  7>  H	3.4	0.0	0.0
|  8> **                         ****END OF INPUT****

CARTESIAN COORDINATES (ANGSTROEM)
---------------------------------
  B      0.000000    0.000000   -0.289998
  H      0.000000    0.000000    3.110002

 Total Charge           Charge          ....    0
 Multiplicity           Mult            ....    1
 Number of Electrons    NEL             ....    6
 Basis Dimension        Dim             ....  126

ORBITAL ENERGIES
----------------

  NO   OCC          E(Eh)            E(eV)    Irrep
   0   2.0000      -7.873474      -214.2481    1-A1
   1   2.0000      -0.604491       -16.4490    2-A1
   2   2.0000      -0.257062        -6.9950    3-A1
   3   0.0000      -0.045105        -1.2274    4-A1
   4   0.0000      -0.032399        -0.8816    1-B1
   5   0.0000      -0.032399        -0.8816    1-B2
   6   0.0000       0.028456         0.7743    5-A1
   7   0.0000       0.047652         1.2967    2-B2

MULLIKEN ATOMIC CHARGES
-----------------------
   0 B :    0.350755
   1 H :   -0.350755
Sum of atomic charges:    0.0000000

LOEWDIN ATOMIC CHARGES
----------------------
   0 B :    0.262846
   1 H :   -0.262846

  Mayer bond orders larger than 0.100000
B(  0-B ,  1-H ) :   0.8814

MP2 TOTAL ENERGY:      -25.031759168 Eh
FINAL SINGLE POINT ENERGY       -25.031759167822

DIPOLE MOMENT
-------------
                                X             Y             Z
Electronic contribution:      0.00000      -0.00000      -5.68482
Nuclear contribution   :      0.00000       0.00000       3.13696
                        -----------------------------------------
Total Dipole Moment    :      0.00000      -0.00000      -2.54786
                        -----------------------------------------
Magnitude (a.u.)       :      2.54786
Magnitude (Debye)      :      6.47614

Rotational constants in cm-1:     0.000000     1.581601     1.581601
Rotational constants in MHz :     0.000000 47415.193741 47415.193741

                             ****ORCA TERMINATED NORMALLY****
TOTAL RUN TIME: 0 days 0 hours 0 minutes 3 seconds 35 msec
