                         Program Version 5.0.0 -  RELEASE  -
|  1> ! MP2 aug-cc-pVQZ pal8 VeryTightSCF UseSym MOread
|  2>
|  3> %moinp "BH-4.8-O.gbw"
|  4>
|  5> *xyz 0 1
|  6>  B	0.0	0.0	0.0
|  7>  H	4.8	0.0	0.0
|  8> **                         ****END OF INPUT****

CARTESIAN COORDINATES (ANGSTROEM)
---------------------------------
  B      0.000000    0.000000   -0.409409
  H      0.000000    0.000000    4.390591

 Total Charge           Charge          ....    0
 Multiplicity           Mult            ....    1
 Number of Electrons    NEL             ....    6
 Basis Dimension        Dim             ....  126

ORBITAL ENERGIES
----------------

  NO   OCC          E(Eh)            E(eV)    Irrep
   0   2.0000      -7.895818      -214.8561    1-A1
   1   2.0000      -0.628170       -17.0934    2-A1
   2   2.0000      -0.221270        -6.0211    3-A1
   3   0.0000      -0.092165        -2.5079    4-A1
   4   0.0000      -0.053229        -1.4484    1-B2
   5   0.0000      -0.053229        -1.4484    1-B1
   6   0.0000       0.020351         0.5538    5-A1
   7   0.0000       0.039694         1.0801    2-B1

MULLIKEN ATOMIC CHARGES
-----------------------
   0 B :    0.406393
   1 H :   -0.406393
Sum of atomic charges:   -0.0000000

LOEWDIN ATOMIC CHARGES
----------------------
   0 B :    0.368901
   1 H :   -0.368901

  Mayer bond orders larger than 0.100000
B(  0-B ,  1-H ) :   0.8350

MP2 TOTAL ENERGY:      -25.015627411 Eh
FINAL SINGLE POINT ENERGY       -25.015627411259

DIPOLE MOMENT
-------------
                                X             Y             Z
Electronic contribution:      0.00000      -0.00000      -8.30045
Nuclear contribution   :      0.00000       0.00000       4.42866
                        -----------------------------------------
Total Dipole Moment    :      0.00000      -0.00000      -3.87180
                        -----------------------------------------
Magnitude (a.u.)       :      3.87180
Magnitude (Debye)      :      9.84132

Rotational constants in cm-1:     0.000000     0.793546     0.793546
Rotational constants in MHz :     0.000000 23789.914915 23789.914915

                             ****ORCA TERMINATED NORMALLY****
TOTAL RUN TIME: 0 days 0 hours 0 minutes 2 seconds 810 msec
