                         Program Version 5.0.0 -  RELEASE  -
|  1> ! MP2 aug-cc-pVQZ pal8 VeryTightSCF UseSym MOread
|  2>
|  3> %moinp "BH-4.6-O.gbw"
|  4>
|  5> *xyz 0 1
|  6>  B	0.0	0.0	0.0
|  7>  H	4.6	0.0	0.0
|  8> **                         ****END OF INPUT****

CARTESIAN COORDINATES (ANGSTROEM)
---------------------------------
  B      0.000000    0.000000   -0.392351
  H      0.000000    0.000000    4.207649

 Total Charge           Charge          ....    0
 Multiplicity           Mult            ....    1
 Number of Electrons    NEL             ....    6
 Basis Dimension        Dim             ....  126

ORBITAL ENERGIES
----------------

  NO   OCC          E(Eh)            E(eV)    Irrep
   0   2.0000      -7.894824      -214.8291    1-A1
   1   2.0000      -0.626543       -17.0491    2-A1
   2   2.0000      -0.224803        -6.1172    3-A1
   3   0.0000      -0.087733        -2.3873    4-A1
   4   0.0000      -0.051615        -1.4045    1-B2
   5   0.0000      -0.051615        -1.4045    1-B1
   6   0.0000       0.021081         0.5737    5-A1
   7   0.0000       0.040535         1.1030    2-B2

MULLIKEN ATOMIC CHARGES
-----------------------
   0 B :    0.403062
   1 H :   -0.403062
Sum of atomic charges:    0.0000000

LOEWDIN ATOMIC CHARGES
----------------------
   0 B :    0.359080
   1 H :   -0.359080

  Mayer bond orders larger than 0.100000
B(  0-B ,  1-H ) :   0.8378

MP2 TOTAL ENERGY:      -25.014477476 Eh
FINAL SINGLE POINT ENERGY       -25.014477475755

DIPOLE MOMENT
-------------
                                X             Y             Z
Electronic contribution:     -0.00000       0.00000      -7.95714
Nuclear contribution   :      0.00000       0.00000       4.24413
                        -----------------------------------------
Total Dipole Moment    :     -0.00000       0.00000      -3.71301
                        -----------------------------------------
Magnitude (a.u.)       :      3.71301
Magnitude (Debye)      :      9.43772

Rotational constants in cm-1:     0.000000     0.864050     0.864050
Rotational constants in MHz :     0.000000 25903.574652 25903.574652

                             ****ORCA TERMINATED NORMALLY****
TOTAL RUN TIME: 0 days 0 hours 0 minutes 2 seconds 904 msec
