                         Program Version 5.0.0 -  RELEASE  -
|  1> ! MP2 aug-cc-pVQZ pal8 VeryTightSCF UseSym MOread
|  2>
|  3> %moinp "BH-5.8-O.gbw"
|  4>
|  5> *xyz 0 1
|  6>  B	0.0	0.0	0.0
|  7>  H	5.8	0.0	0.0
|  8> **                         ****END OF INPUT****

CARTESIAN COORDINATES (ANGSTROEM)
---------------------------------
  B      0.000000    0.000000   -0.494703
  H      0.000000    0.000000    5.305297

 Total Charge           Charge          ....    0
 Multiplicity           Mult            ....    1
 Number of Electrons    NEL             ....    6
 Basis Dimension        Dim             ....  126

ORBITAL ENERGIES
----------------

  NO   OCC          E(Eh)            E(eV)    Irrep
   0   2.0000      -7.896450      -214.8733    1-A1
   1   2.0000      -0.632052       -17.1990    2-A1
   2   2.0000      -0.207971        -5.6592    3-A1
   3   0.0000      -0.107967        -2.9379    4-A1
   4   0.0000      -0.057753        -1.5716    1-B2
   5   0.0000      -0.057753        -1.5716    1-B1
   6   0.0000       0.017728         0.4824    5-A1
   7   0.0000       0.036296         0.9877    2-B2

MULLIKEN ATOMIC CHARGES
-----------------------
   0 B :    0.411048
   1 H :   -0.411048
Sum of atomic charges:   -0.0000000

LOEWDIN ATOMIC CHARGES
----------------------
   0 B :    0.394986
   1 H :   -0.394986

  Mayer bond orders larger than 0.100000
B(  0-B ,  1-H ) :   0.8311

MP2 TOTAL ENERGY:      -25.031877415 Eh
FINAL SINGLE POINT ENERGY       -25.031877414738

DIPOLE MOMENT
-------------
                                X             Y             Z
Electronic contribution:     -0.00000       0.00000      -9.93537
Nuclear contribution   :      0.00000       0.00000       5.35129
                        -----------------------------------------
Total Dipole Moment    :     -0.00000       0.00000      -4.58408
                        -----------------------------------------
Magnitude (a.u.)       :      4.58408
Magnitude (Debye)      :     11.65180

Rotational constants in cm-1:     0.000000     0.543499     0.543499
Rotational constants in MHz :     0.000000 16293.687266 16293.687266

                             ****ORCA TERMINATED NORMALLY****
TOTAL RUN TIME: 0 days 0 hours 0 minutes 2 seconds 785 msec
