                         Program Version 5.0.0 -  RELEASE  -
|  1> ! MP2 aug-cc-pVQZ pal8 VeryTightSCF UseSym MOread
|  2>
|  3> %moinp "BH-5.2-O.gbw"
|  4>
|  5> *xyz 0 1
|  6>  B	0.0	0.0	0.0
|  7>  H	5.2	0.0	0.0
|  8> **                         ****END OF INPUT****

CARTESIAN COORDINATES (ANGSTROEM)
---------------------------------
  B      0.000000    0.000000   -0.443527
  H      0.000000    0.000000    4.756473

 Total Charge           Charge          ....    0
 Multiplicity           Mult            ....    1
 Number of Electrons    NEL             ....    6
 Basis Dimension        Dim             ....  126

ORBITAL ENERGIES
----------------

  NO   OCC          E(Eh)            E(eV)    Irrep
   0   2.0000      -7.896718      -214.8806    1-A1
   1   2.0000      -0.630402       -17.1541    2-A1
   2   2.0000      -0.215191        -5.8556    3-A1
   3   0.0000      -0.099578        -2.7097    4-A1
   4   0.0000      -0.055617        -1.5134    1-B2
   5   0.0000      -0.055617        -1.5134    1-B1
   6   0.0000       0.019129         0.5205    5-A1
   7   0.0000       0.038201         1.0395    2-B2

MULLIKEN ATOMIC CHARGES
-----------------------
   0 B :    0.410278
   1 H :   -0.410278
Sum of atomic charges:   -0.0000000

LOEWDIN ATOMIC CHARGES
----------------------
   0 B :    0.383382
   1 H :   -0.383382

  Mayer bond orders larger than 0.100000
B(  0-B ,  1-H ) :   0.8317

MP2 TOTAL ENERGY:      -25.020314387 Eh
FINAL SINGLE POINT ENERGY       -25.020314387311

DIPOLE MOMENT
-------------
                                X             Y             Z
Electronic contribution:      0.00000      -0.00000      -8.96793
Nuclear contribution   :      0.00000       0.00000       4.79771
                        -----------------------------------------
Total Dipole Moment    :      0.00000      -0.00000      -4.17022
                        -----------------------------------------
Magnitude (a.u.)       :      4.17022
Magnitude (Debye)      :     10.59986

Rotational constants in cm-1:     0.000000     0.676158     0.676158
Rotational constants in MHz :     0.000000 20270.696732 20270.696732

                             ****ORCA TERMINATED NORMALLY****
TOTAL RUN TIME: 0 days 0 hours 0 minutes 2 seconds 784 msec
