                         Program Version 5.0.0 -  RELEASE  -
|  1> ! RHF cc-pvdz UseSym pal8
|  2>
|  3> *xyz 0 1
|  4>  C   1.21105763915345      0.69916522296351     -0.00000002423937
|  5>  C   0.00000000882288      1.39827374718112     -0.00000003476372
|  6>  C   -1.21105761456966      0.69916520818333      0.00000001202970
|  7>  C   -1.21105765944965     -0.69916521253772     -0.00000002028759
|  8>  C   -0.00000002924690     -1.39827375425198     -0.00000006510495
|  9>  C   1.21105759634142     -0.69916519566758     -0.00000001139166
| 10>  H   2.15727867932261      1.24550656935944      0.00000002108822
| 11>  H   -0.00000003268748      2.49090825711365     -0.00000007876766
| 12>  H   -2.15727859099377      1.24550663211660      0.00000011262075
| 13>  H   -2.15727863065228     -1.24550666379260      0.00000002492918
| 14>  H   -0.00000001076256     -2.49090826242235     -0.00000006787266
| 15>  H   2.15727864472193     -1.24550654824542      0.00000013175977
| 16> *
| 17>
| 18>
| 19>                          ****END OF INPUT****

CARTESIAN COORDINATES (ANGSTROEM)
---------------------------------
  C      1.211058    0.699165    0.000000
  C      0.000000    1.398274   -0.000000
  C     -1.211058    0.699165   -0.000000
  C     -1.211058   -0.699165    0.000000
  C      0.000000   -1.398274   -0.000000
  C      1.211058   -0.699165   -0.000000
  H      2.157279    1.245507    0.000000
  H     -0.000000    2.490908    0.000000
  H     -2.157279    1.245507   -0.000000
  H     -2.157279   -1.245507    0.000000
  H      0.000000   -2.490908    0.000000
  H      2.157279   -1.245507   -0.000000

 Total Charge           Charge          ....    0
 Multiplicity           Mult            ....    1
 Number of Electrons    NEL             ....   42
 Basis Dimension        Dim             ....  114

ORBITAL ENERGIES
----------------

  NO   OCC          E(Eh)            E(eV)    Irrep
   0   2.0000     -11.241513      -305.8971    1-Ag
   1   2.0000     -11.240969      -305.8823    1-B3u
   2   2.0000     -11.240968      -305.8823    1-B2u
   3   2.0000     -11.239796      -305.8504    1-B1g
   4   2.0000     -11.239795      -305.8504    2-Ag
   5   2.0000     -11.239224      -305.8348    2-B2u
   6   2.0000      -1.146022       -31.1848    3-Ag
   7   2.0000      -1.011136       -27.5144    2-B3u
   8   2.0000      -1.011108       -27.5137    3-B2u
   9   2.0000      -0.819496       -22.2996    2-B1g
  10   2.0000      -0.819494       -22.2996    4-Ag
  11   2.0000      -0.702168       -19.1070    5-Ag
  12   2.0000      -0.638563       -17.3762    4-B2u
  13   2.0000      -0.614019       -16.7083    3-B3u
  14   2.0000      -0.582475       -15.8499    4-B3u
  15   2.0000      -0.582434       -15.8488    5-B2u
  16   2.0000      -0.497874       -13.5478    1-B1u
  17   2.0000      -0.489760       -13.3271    3-B1g
  18   2.0000      -0.489736       -13.3264    6-Ag
  19   2.0000      -0.333264        -9.0686    1-B2g
  20   2.0000      -0.333245        -9.0681    1-B3g
  21   0.0000       0.136173         3.7055    1-Au
  22   0.0000       0.136174         3.7055    2-B1u
  23   0.0000       0.181068         4.9271    7-Ag
  24   0.0000       0.219351         5.9688    5-B3u
  25   0.0000       0.219355         5.9690    6-B2u

MULLIKEN ATOMIC CHARGES
-----------------------
   0 C :   -0.028803
   1 C :   -0.028823
   2 C :   -0.028803
   3 C :   -0.028803
   4 C :   -0.028823
   5 C :   -0.028803
   6 H :    0.028811
   7 H :    0.028807
   8 H :    0.028811
   9 H :    0.028811
  10 H :    0.028807
  11 H :    0.028811
Sum of atomic charges:   -0.0000000

LOEWDIN ATOMIC CHARGES
----------------------
   0 C :   -0.028692
   1 C :   -0.028690
   2 C :   -0.028692
   3 C :   -0.028692
   4 C :   -0.028690
   5 C :   -0.028692
   6 H :    0.028693
   7 H :    0.028689
   8 H :    0.028693
   9 H :    0.028693
  10 H :    0.028689
  11 H :    0.028693

  Mayer bond orders larger than 0.100000
B(  0-C ,  1-C ) :   1.4579 B(  0-C ,  5-C ) :   1.4579 B(  0-C ,  6-H ) :   0.9768
B(  1-C ,  2-C ) :   1.4579 B(  1-C ,  7-H ) :   0.9768 B(  2-C ,  3-C ) :   1.4579
B(  2-C ,  8-H ) :   0.9768 B(  3-C ,  4-C ) :   1.4579 B(  3-C ,  9-H ) :   0.9768
B(  4-C ,  5-C ) :   1.4579 B(  4-C , 10-H ) :   0.9768 B(  5-C , 11-H ) :   0.9768

FINAL SINGLE POINT ENERGY      -230.721302079009

DIPOLE MOMENT
-------------
                                X             Y             Z
Electronic contribution:     -0.00000       0.00000      -0.00000
Nuclear contribution   :      0.00000       0.00000       0.00000
                        -----------------------------------------
Total Dipole Moment    :     -0.00000       0.00000      -0.00000
                        -----------------------------------------
Magnitude (a.u.)       :      0.00000
Magnitude (Debye)      :      0.00000

Rotational constants in cm-1:     0.188954     0.188927     0.094470
Rotational constants in MHz :  5664.683605  5663.875242  2832.139697

                             ****ORCA TERMINATED NORMALLY****
TOTAL RUN TIME: 0 days 0 hours 0 minutes 17 seconds 980 msec
