                         Program Version 5.0.0 -  RELEASE  -
|  1> ! cc-pvdz NoUseSym pal8
|  2> ! MOread
|  3>
|  4> %moinp  "ben-opt.gbw"
|  5>
|  6> %scf
|  7>     rotate {18,16,90} {23,28,90} end
|  8> end
|  9>
| 10> %casscf
| 11>     mult    1
| 12>     nel     6
| 13>     norb    6
| 14> end
| 15>
| 16> *xyz 0 1
| 17>  C   1.21105763915345      0.69916522296351     -0.00000002423937
| 18>  C   0.00000000882288      1.39827374718112     -0.00000003476372
| 19>  C   -1.21105761456966      0.69916520818333      0.00000001202970
| 20>  C   -1.21105765944965     -0.69916521253772     -0.00000002028759
| 21>  C   -0.00000002924690     -1.39827375425198     -0.00000006510495
| 22>  C   1.21105759634142     -0.69916519566758     -0.00000001139166
| 23>  H   2.15727867932261      1.24550656935944      0.00000002108822
| 24>  H   -0.00000003268748      2.49090825711365     -0.00000007876766
| 25>  H   -2.15727859099377      1.24550663211660      0.00000011262075
| 26>  H   -2.15727863065228     -1.24550666379260      0.00000002492918
| 27>  H   -0.00000001076256     -2.49090826242235     -0.00000006787266
| 28>  H   2.15727864472193     -1.24550654824542      0.00000013175977
| 29> *
| 30>
| 31>
| 32>                          ****END OF INPUT****

CARTESIAN COORDINATES (ANGSTROEM)
---------------------------------
  C      1.211058    0.699165   -0.000000
  C      0.000000    1.398274   -0.000000
  C     -1.211058    0.699165    0.000000
  C     -1.211058   -0.699165   -0.000000
  C     -0.000000   -1.398274   -0.000000
  C      1.211058   -0.699165   -0.000000
  H      2.157279    1.245507    0.000000
  H     -0.000000    2.490908   -0.000000
  H     -2.157279    1.245507    0.000000
  H     -2.157279   -1.245507    0.000000
  H     -0.000000   -2.490908   -0.000000
  H      2.157279   -1.245507    0.000000

 Total Charge           Charge          ....    0
 Multiplicity           Mult            ....    1
 Number of Electrons    NEL             ....   42
 Basis Dimension        Dim             ....  114

ORBITAL ENERGIES
----------------

  NO   OCC          E(Eh)            E(eV)
   0   2.0000     -11.230433      -305.5956
   1   2.0000     -11.229894      -305.5810
   2   2.0000     -11.229894      -305.5809
   3   2.0000     -11.228733      -305.5494
   4   2.0000     -11.228733      -305.5494
   5   2.0000     -11.228165      -305.5339
   6   2.0000      -1.141171       -31.0528
   7   2.0000      -1.005980       -27.3741
   8   2.0000      -1.005953       -27.3734
   9   2.0000      -0.814737       -22.1701
  10   2.0000      -0.814735       -22.1701
  11   2.0000      -0.697975       -18.9929
  12   2.0000      -0.634251       -17.2588
  13   2.0000      -0.608230       -16.5508
  14   2.0000      -0.578006       -15.7283
  15   2.0000      -0.577966       -15.7272
  16   2.0000      -0.484784       -13.1916
  17   2.0000      -0.484760       -13.1910
  18   1.9605      -0.487328       -13.2609
  19   1.9006      -0.320251        -8.7145
  20   1.9006      -0.320231        -8.7139
  21   0.1007       0.166631         4.5343
  22   0.1007       0.166634         4.5344
  23   0.0368       0.423116        11.5136
  24   0.0000       0.182740         4.9726
  25   0.0000       0.221212         6.0195
  26   0.0000       0.221216         6.0196
  27   0.0000       0.256707         6.9854
  28   0.0000       0.256709         6.9854

MULLIKEN ATOMIC CHARGES
-----------------------
   0 C :   -0.024453
   1 C :   -0.024476
   2 C :   -0.024453
   3 C :   -0.024453
   4 C :   -0.024476
   5 C :   -0.024453
   6 H :    0.024462
   7 H :    0.024458
   8 H :    0.024462
   9 H :    0.024462
  10 H :    0.024458
  11 H :    0.024462
Sum of atomic charges:   -0.0000000

LOEWDIN ATOMIC CHARGES
----------------------
   0 C :   -0.025759
   1 C :   -0.025756
   2 C :   -0.025759
   3 C :   -0.025759
   4 C :   -0.025756
   5 C :   -0.025759
   6 H :    0.025760
   7 H :    0.025755
   8 H :    0.025759
   9 H :    0.025760
  10 H :    0.025755
  11 H :    0.025760

  Mayer bond orders larger than 0.100000
B(  0-C ,  1-C ) :   1.3990 B(  0-C ,  5-C ) :   1.3990 B(  0-C ,  6-H ) :   0.9774
B(  1-C ,  2-C ) :   1.3990 B(  1-C ,  7-H ) :   0.9774 B(  2-C ,  3-C ) :   1.3990
B(  2-C ,  8-H ) :   0.9774 B(  3-C ,  4-C ) :   1.3990 B(  3-C ,  9-H ) :   0.9774
B(  4-C ,  5-C ) :   1.3990 B(  4-C , 10-H ) :   0.9774 B(  5-C , 11-H ) :   0.9774

FINAL SINGLE POINT ENERGY      -230.793858806719

DIPOLE MOMENT
-------------
                                X             Y             Z
Electronic contribution:     -0.00000       0.00000      -0.00000
Nuclear contribution   :      0.00000      -0.00000       0.00000
                        -----------------------------------------
Total Dipole Moment    :      0.00000      -0.00000       0.00000
                        -----------------------------------------
Magnitude (a.u.)       :      0.00000
Magnitude (Debye)      :      0.00000

Rotational constants in cm-1:     0.188954     0.188927     0.094470
Rotational constants in MHz :  5664.683605  5663.875242  2832.139697

                             ****ORCA TERMINATED NORMALLY****
TOTAL RUN TIME: 0 days 0 hours 0 minutes 48 seconds 634 msec
