 Gaussian 16, Revision A.03,
 Gaussian 16:  ES64L-G16RevA.03 25-Dec-2016

 ----------------------------------
 #p B3LYP/Def2TZVP guess=mix stable
 ----------------------------------

 ------------
 [Fe(H2O)6]2+
 ------------
 Symbolic Z-matrix:
 Charge =  2 Multiplicity = 1

                         Standard orientation:
 ---------------------------------------------------------------------
 Center     Atomic      Atomic             Coordinates (Angstroms)
 Number     Number       Type             X           Y           Z
 ---------------------------------------------------------------------
      1         26           0        0.000065    0.000163   -0.000017
      2          8           0       -1.246719   -1.256779    0.948755
      3          1           0       -1.906773   -1.728539    0.406440
      4          8           0        1.248166    0.192856    1.561816
      5          1           0        0.978517    0.504619    2.444641
      6          8           0       -1.248574   -0.193244   -1.561244
      7          1           0       -0.979714   -0.505995   -2.443958
      8          8           0        1.247144    1.256732   -0.948912
      9          1           0        1.906411    1.729332   -0.406365
     10          8           0       -1.247341    1.449656    0.614407
     11          1           0       -1.905699    1.215874    1.295786
     12          8           0        1.247217   -1.449530   -0.614705
     13          1           0        1.906902   -1.215343   -1.294651
     14          1           0       -0.977458    2.370268    0.784533
     15          1           0        1.907641   -0.513331    1.698765
     16          1           0        0.977196   -2.369840   -0.786194
     17          1           0       -0.975734   -1.865439    1.659658
     18          1           0       -1.908858    0.512144   -1.698350
     19          1           0        0.976718    1.864477   -1.660803
 ---------------------------------------------------------------------

 SCF Done:  E(RB3LYP) =  -1722.05136252     A.U. after   18 cycles

 The electronic state is 1-A.
 Alpha  occ. eigenvalues -- -256.37041 -30.30799 -26.17030 -26.16889 -26.16889
 Alpha  occ. eigenvalues --  -19.48741 -19.48740 -19.48738 -19.48738 -19.48737
 Alpha  occ. eigenvalues --  -19.48737  -3.73232  -2.50657  -2.50319  -2.50319
 Alpha  occ. eigenvalues --   -1.37409  -1.36514  -1.36176  -1.36176  -1.36010
 Alpha  occ. eigenvalues --   -1.36010  -0.89035  -0.88671  -0.88199  -0.88197
 Alpha  occ. eigenvalues --   -0.88064  -0.88063  -0.82081  -0.77935  -0.77845
 Alpha  occ. eigenvalues --   -0.77843  -0.76674  -0.76672  -0.68887  -0.68884
 Alpha  occ. eigenvalues --   -0.68169  -0.68168  -0.68067  -0.66569  -0.54881
 Alpha  occ. eigenvalues --   -0.54398  -0.54397
 Alpha virt. eigenvalues --   -0.34193  -0.34192  -0.31742  -0.26932  -0.26931
 Alpha virt. eigenvalues --   -0.26158  -0.22817  -0.22816  -0.19457  -0.19271
 Alpha virt. eigenvalues --   -0.19270  -0.18980  -0.18210  -0.18210  -0.06663

 Mulliken charges:
               1
     1  Fe   0.662002
     2  O   -0.558990
     3  H    0.393126
     4  O   -0.558994
     5  H    0.388920
     6  O   -0.559157
     7  H    0.388925
     8  O   -0.559056
     9  H    0.393139
    10  O   -0.559015
    11  H    0.393126
    12  O   -0.559128
    13  H    0.393156
    14  H    0.388914
    15  H    0.393128
    16  H    0.388910
    17  H    0.388902
    18  H    0.393164
    19  H    0.388926
 Sum of Mulliken charges =   2.00000

 Dipole moment (field-independent basis, Debye):
    X=             -0.0012    Y=             -0.0014    Z=             -0.0017  Tot=              0.0025
 Quadrupole moment (field-independent basis, Debye-Ang):
   XX=            -22.9553   YY=            -15.7719   ZZ=            -15.7809
   XY=             -0.0015   XZ=              0.0117   YZ=              0.0056

 Normal termination of Gaussian 16 at Sat May 14 11:17:54 2022.
