 Gaussian 16, Revision A.03,
 Gaussian 16:  ES64L-G16RevA.03 25-Dec-2016

 -------------------------------
 #p RHF/cc-pVTZ stable guess=mix
 -------------------------------

 ------------
 [Fe(H2O)6]2+
 ------------
 Symbolic Z-matrix:
 Charge =  2 Multiplicity = 1

                         Standard orientation:
 ---------------------------------------------------------------------
 Center     Atomic      Atomic             Coordinates (Angstroms)
 Number     Number       Type             X           Y           Z
 ---------------------------------------------------------------------
      1         26           0        0.000065    0.000163   -0.000017
      2          8           0       -1.246719   -1.256779    0.948755
      3          1           0       -1.906773   -1.728539    0.406440
      4          8           0        1.248166    0.192856    1.561816
      5          1           0        0.978517    0.504619    2.444641
      6          8           0       -1.248574   -0.193244   -1.561244
      7          1           0       -0.979714   -0.505995   -2.443958
      8          8           0        1.247144    1.256732   -0.948912
      9          1           0        1.906411    1.729332   -0.406365
     10          8           0       -1.247341    1.449656    0.614407
     11          1           0       -1.905699    1.215874    1.295786
     12          8           0        1.247217   -1.449530   -0.614705
     13          1           0        1.906902   -1.215343   -1.294651
     14          1           0       -0.977458    2.370268    0.784533
     15          1           0        1.907641   -0.513331    1.698765
     16          1           0        0.977196   -2.369840   -0.786194
     17          1           0       -0.975734   -1.865439    1.659658
     18          1           0       -1.908858    0.512144   -1.698350
     19          1           0        0.976718    1.864477   -1.660803
 ---------------------------------------------------------------------

 SCF Done:  E(RHF) =  -1718.34732173     A.U. after   27 cycles

 The electronic state is 1-A.
 Alpha  occ. eigenvalues -- -261.61592 -32.18003 -27.66060 -27.65978 -27.65977
 Alpha  occ. eigenvalues --  -20.91211 -20.91211 -20.91210 -20.91210 -20.91209
 Alpha  occ. eigenvalues --  -20.91208  -4.40804  -2.99028  -2.98874  -2.98874
 Alpha  occ. eigenvalues --   -1.71022  -1.69929  -1.69480  -1.69480  -1.69267
 Alpha  occ. eigenvalues --   -1.69266  -1.07423  -1.06744  -1.06345  -1.06343
 Alpha  occ. eigenvalues --   -1.05981  -1.05979  -1.01022  -0.96503  -0.95634
 Alpha  occ. eigenvalues --   -0.95631  -0.95179  -0.95177  -0.88629  -0.88626
 Alpha  occ. eigenvalues --   -0.87832  -0.87139  -0.87138  -0.85303  -0.80379
 Alpha  occ. eigenvalues --   -0.79898  -0.79897
 Alpha virt. eigenvalues --   -0.21388  -0.17474  -0.17473  -0.16108  -0.11100
 Alpha virt. eigenvalues --   -0.11099  -0.06782  -0.06782  -0.06665  -0.06662
 Alpha virt. eigenvalues --   -0.05338  -0.05338   0.00053   0.01596   0.02160

 Mulliken charges:
               1
     1  Fe   1.270528
     2  O   -0.507518
     3  H    0.318302
     4  O   -0.507531
     5  H    0.310824
     6  O   -0.507658
     7  H    0.310859
     8  O   -0.507583
     9  H    0.318324
    10  O   -0.507516
    11  H    0.318291
    12  O   -0.507601
    13  H    0.318325
    14  H    0.310809
    15  H    0.318297
    16  H    0.310834
    17  H    0.310808
    18  H    0.318369
    19  H    0.310839
 Sum of Mulliken charges =   2.00000

 Dipole moment (field-independent basis, Debye):
    X=             -0.0011    Y=             -0.0013    Z=             -0.0018  Tot=              0.0025
 Quadrupole moment (field-independent basis, Debye-Ang):
   XX=            -22.6677   YY=            -15.2353   ZZ=            -15.2437
   XY=             -0.0016   XZ=              0.0121   YZ=              0.0057

 Normal termination of Gaussian 16 at Sat May 14 11:17:48 2022.
