                         Program Version 5.0.0 -  RELEASE  -
|  1> ! B3LYP/G def2-TZVP NoRI TightSCF
|  2>
|  3> %pal
|  4>     nprocs 16
|  5> end
|  6>
|  7> %scf
|  8>     STABPerform true
|  9> end
| 10>
| 11> *xyz 2 1
| 12>  Fe                 6.20397196    1.03714637    0.17096759
| 13>  O                  8.02343961    0.99562593    0.15635557
| 14>  O                  6.24694430   -0.78162449    0.11972374
| 15>  O                  6.22607513    1.15774049   -1.64489818
| 16>  O                  4.38440248    1.01816527    0.20570458
| 17>  O                  6.16557932    2.85626904    0.21242489
| 18>  O                  6.16850601    1.06001114    1.99047834
| 19>  H                  4.06545864    1.78648828    0.68482314
| 20>  H                  4.08101507    0.21943896    0.64341723
| 21>  H                  6.97846238    3.18466572    0.60354733
| 22>  H                  5.41693185    3.14865831    0.73743487
| 23>  H                  6.90726982    0.55047930    2.33136739
| 24>  H                  5.34491271    0.67543823    2.29934360
| 25>  H                  8.36474659    1.75961228    0.62692374
| 26>  H                  8.32866067    0.19290442    0.58539903
| 27>  H                  7.07410906   -1.09285932    0.49459883
| 28>  H                  5.51267410   -1.13351772    0.62826915
| 29>  H                  6.97521418    0.66593956   -1.98916919
| 30>  H                  5.41263500    0.79176715   -1.99983292
| 31> *
| 32>
| 33>
| 34>                          ****END OF INPUT****

CARTESIAN COORDINATES (ANGSTROEM)
---------------------------------
  Fe     6.203972    1.037146    0.170968
  O      8.023440    0.995626    0.156356
  O      6.246944   -0.781624    0.119724
  O      6.226075    1.157740   -1.644898
  O      4.384402    1.018165    0.205705
  O      6.165579    2.856269    0.212425
  O      6.168506    1.060011    1.990478
  H      4.065459    1.786488    0.684823
  H      4.081015    0.219439    0.643417
  H      6.978462    3.184666    0.603547
  H      5.416932    3.148658    0.737435
  H      6.907270    0.550479    2.331367
  H      5.344913    0.675438    2.299344
  H      8.364747    1.759612    0.626924
  H      8.328661    0.192904    0.585399
  H      7.074109   -1.092859    0.494599
  H      5.512674   -1.133518    0.628269
  H      6.975214    0.665940   -1.989169
  H      5.412635    0.791767   -1.999833

 Total Charge           Charge          ....    2
 Multiplicity           Mult            ....    1
 Number of Electrons    NEL             ....   84
 Basis Dimension        Dim             ....  303

ORBITAL ENERGIES
----------------

  NO   OCC          E(Eh)            E(eV)
   0   2.0000    -256.340498     -6975.3796
   1   2.0000     -30.284942      -824.0952
   2   2.0000     -26.147066      -711.4978
   3   2.0000     -26.145449      -711.4538
   4   2.0000     -26.143904      -711.4118
   5   2.0000     -19.543221      -531.7981
   6   2.0000     -19.542920      -531.7899
   7   2.0000     -19.542647      -531.7825
   8   2.0000     -19.541986      -531.7645
   9   2.0000     -19.510963      -530.9203
  10   2.0000     -19.480728      -530.0976
  11   2.0000      -3.721286      -101.2613
  12   2.0000      -2.500477       -68.0414
  13   2.0000      -2.496723       -67.9393
  14   2.0000      -2.493443       -67.8500
  15   2.0000      -1.458062       -39.6759
  16   2.0000      -1.436352       -39.0851
  17   2.0000      -1.431804       -38.9614
  18   2.0000      -1.429593       -38.9012
  19   2.0000      -1.404725       -38.2245
  20   2.0000      -1.373751       -37.3817
  21   2.0000      -0.995081       -27.0775
  22   2.0000      -0.968449       -26.3528
  23   2.0000      -0.961280       -26.1578
  24   2.0000      -0.946117       -25.7452
  25   2.0000      -0.914596       -24.8874
  26   2.0000      -0.902778       -24.5658
  27   2.0000      -0.869222       -23.6527
  28   2.0000      -0.845849       -23.0167
  29   2.0000      -0.833436       -22.6790
  30   2.0000      -0.817894       -22.2560
  31   2.0000      -0.812784       -22.1170
  32   2.0000      -0.783523       -21.3207
  33   2.0000      -0.773776       -21.0555
  34   2.0000      -0.743696       -20.2370
  35   2.0000      -0.742193       -20.1961
  36   2.0000      -0.728231       -19.8162
  37   2.0000      -0.706686       -19.2299
  38   2.0000      -0.681508       -18.5448
  39   2.0000      -0.549496       -14.9525
  40   2.0000      -0.535965       -14.5844
  41   2.0000      -0.523659       -14.2495
  42   0.0000      -0.383648       -10.4396
  43   0.0000      -0.333703        -9.0805
  44   0.0000      -0.315682        -8.5902
  45   0.0000      -0.299664        -8.1543
  46   0.0000      -0.297178        -8.0866

MULLIKEN ATOMIC CHARGES
-----------------------
   0 Fe:    0.050825
   1 O :   -0.412169
   2 O :   -0.380193
   3 O :   -0.389854
   4 O :   -0.420303
   5 O :   -0.359110
   6 O :   -0.395572
   7 H :    0.367558
   8 H :    0.349825
   9 H :    0.354595
  10 H :    0.349445
  11 H :    0.364624
  12 H :    0.358311
  13 H :    0.373091
  14 H :    0.340738
  15 H :    0.344416
  16 H :    0.352598
  17 H :    0.375208
  18 H :    0.375966
Sum of atomic charges:    2.0000000

LOEWDIN ATOMIC CHARGES
----------------------
   0 Fe:   -0.566392
   1 O :    0.034311
   2 O :    0.029877
   3 O :    0.033503
   4 O :    0.035047
   5 O :    0.039365
   6 O :    0.011626
   7 H :    0.203502
   8 H :    0.194228
   9 H :    0.200184
  10 H :    0.195844
  11 H :    0.197092
  12 H :    0.192702
  13 H :    0.207454
  14 H :    0.190656
  15 H :    0.192700
  16 H :    0.196497
  17 H :    0.205034
  18 H :    0.206769

  Mayer bond orders larger than 0.100000
B(  0-Fe,  1-O ) :   0.5193 B(  0-Fe,  2-O ) :   0.5091 B(  0-Fe,  3-O ) :   0.5904
B(  0-Fe,  4-O ) :   0.5064 B(  0-Fe,  5-O ) :   0.5683 B(  0-Fe,  6-O ) :   0.4811
B(  1-O , 13-H ) :   0.8509 B(  1-O , 14-H ) :   0.8625 B(  2-O , 15-H ) :   0.8629
B(  2-O , 16-H ) :   0.8615 B(  3-O , 17-H ) :   0.8494 B(  3-O , 18-H ) :   0.8507
B(  4-O ,  7-H ) :   0.8509 B(  4-O ,  8-H ) :   0.8610 B(  5-O ,  9-H ) :   0.8626
B(  5-O , 10-H ) :   0.8614 B(  6-O , 11-H ) :   0.8523 B(  6-O , 12-H ) :   0.8513

FINAL SINGLE POINT ENERGY     -1721.892297203754

DIPOLE MOMENT
-------------
                                X             Y             Z
Electronic contribution:      0.00674       0.45380      -1.01565
Nuclear contribution   :      0.01944      -1.57275       3.19046
                        -----------------------------------------
Total Dipole Moment    :      0.02618      -1.11895       2.17480
                        -----------------------------------------
Magnitude (a.u.)       :      2.44592
Magnitude (Debye)      :      6.21702

Rotational constants in cm-1:     0.067502     0.065853     0.064678
Rotational constants in MHz :  2023.652591  1974.224213  1938.985718

                             ****ORCA TERMINATED NORMALLY****
TOTAL RUN TIME: 0 days 0 hours 1 minutes 1 seconds 281 msec
