                         Program Version 5.0.0 -  RELEASE  -
|  1> ! UHF cc-pVDZ pal8
|  2>
|  3> *xyz 0 3
|  4>   C     -3.693788    1.345950   -0.080153
|  5>   C     -2.193484    1.373788   -0.056812
|  6>   H     -4.225508    1.180088   -1.010334
|  7>   H     -4.255204    1.224048    0.839301
|  8>   C     -1.554416   -0.023401   -0.016100
|  9>   H     -1.824927    1.905707   -0.939850
| 10>   H     -1.852812    1.944021    0.813355
| 11>   C     -0.027056    0.014500    0.007320
| 12>   H     -1.919913   -0.559214    0.866609
| 13>   H     -1.893486   -0.598246   -0.884715
| 14>   H      0.334747    0.551752   -0.877315
| 15>   H      0.305045    0.594496    0.874340
| 16>   C      0.609304   -1.374514    0.044919
| 17>   H      0.262703   -1.951369   -0.819054
| 18>   H      0.259278   -1.912060    0.933203
| 19>   C      2.147820   -1.364759    0.037560
| 20>   H      2.493149   -2.399801   -0.057561
| 21>   H      2.498336   -0.839762   -0.856087
| 22>   C      2.771544   -0.752033    1.258758
| 23>   H      3.140055    0.266294    1.257206
| 24>   H      2.687753   -1.251260    2.218099
| 25> *
| 26>
| 27>                          ****END OF INPUT****

CARTESIAN COORDINATES (ANGSTROEM)
---------------------------------
  C     -3.693788    1.345950   -0.080153
  C     -2.193484    1.373788   -0.056812
  H     -4.225508    1.180088   -1.010334
  H     -4.255204    1.224048    0.839301
  C     -1.554416   -0.023401   -0.016100
  H     -1.824927    1.905707   -0.939850
  H     -1.852812    1.944021    0.813355
  C     -0.027056    0.014500    0.007320
  H     -1.919913   -0.559214    0.866609
  H     -1.893486   -0.598246   -0.884715
  H      0.334747    0.551752   -0.877315
  H      0.305045    0.594496    0.874340
  C      0.609304   -1.374514    0.044919
  H      0.262703   -1.951369   -0.819054
  H      0.259278   -1.912060    0.933203
  C      2.147820   -1.364759    0.037560
  H      2.493149   -2.399801   -0.057561
  H      2.498336   -0.839762   -0.856087
  C      2.771544   -0.752033    1.258758
  H      3.140055    0.266294    1.257206
  H      2.687753   -1.251260    2.218099

 Total Charge           Charge          ....    0
 Multiplicity           Mult            ....    3
 Number of Electrons    NEL             ....   56
 Basis Dimension        Dim             ....  168

ORBITAL ENERGIES
----------------
                 SPIN UP ORBITALS
  NO   OCC          E(Eh)            E(eV)
   0   1.0000     -11.231447      -305.6232
   1   1.0000     -11.231207      -305.6167
   2   1.0000     -11.225168      -305.4524
   3   1.0000     -11.224176      -305.4254
   4   1.0000     -11.223181      -305.3983
   5   1.0000     -11.222377      -305.3764
   6   1.0000     -11.218987      -305.2842
   7   1.0000      -1.094892       -29.7935
   8   1.0000      -1.058543       -28.8044
   9   1.0000      -0.995276       -27.0828
  10   1.0000      -0.918922       -25.0051
  11   1.0000      -0.845069       -22.9955
  12   1.0000      -0.791103       -21.5270
  13   1.0000      -0.776165       -21.1205
  14   1.0000      -0.653370       -17.7791
  15   1.0000      -0.626694       -17.0532
  16   1.0000      -0.608963       -16.5707
  17   1.0000      -0.583150       -15.8683
  18   1.0000      -0.565162       -15.3789
  19   1.0000      -0.555336       -15.1115
  20   1.0000      -0.534691       -14.5497
  21   1.0000      -0.512147       -13.9362
  22   1.0000      -0.497674       -13.5424
  23   1.0000      -0.472587       -12.8597
  24   1.0000      -0.468701       -12.7540
  25   1.0000      -0.460199       -12.5227
  26   1.0000      -0.459660       -12.5080
  27   1.0000      -0.354776        -9.6539
  28   1.0000      -0.342613        -9.3230
  29   0.0000       0.184317         5.0155
  30   0.0000       0.195029         5.3070
  31   0.0000       0.205869         5.6020
  32   0.0000       0.207493         5.6462
  33   0.0000       0.224014         6.0957

                 SPIN DOWN ORBITALS
  NO   OCC          E(Eh)            E(eV)
   0   1.0000     -11.228355      -305.5391
   1   1.0000     -11.227266      -305.5094
   2   1.0000     -11.220898      -305.3362
   3   1.0000     -11.219987      -305.3114
   4   1.0000     -11.218709      -305.2766
   5   1.0000     -11.206443      -304.9428
   6   1.0000     -11.206176      -304.9355
   7   1.0000      -1.085949       -29.5502
   8   1.0000      -1.037104       -28.2210
   9   1.0000      -0.961295       -26.1582
  10   1.0000      -0.870113       -23.6770
  11   1.0000      -0.806445       -21.9445
  12   1.0000      -0.770483       -20.9659
  13   1.0000      -0.757010       -20.5993
  14   1.0000      -0.649479       -17.6732
  15   1.0000      -0.618534       -16.8312
  16   1.0000      -0.597944       -16.2709
  17   1.0000      -0.569007       -15.4835
  18   1.0000      -0.551298       -15.0016
  19   1.0000      -0.544267       -14.8103
  20   1.0000      -0.522463       -14.2169
  21   1.0000      -0.501077       -13.6350
  22   1.0000      -0.484982       -13.1970
  23   1.0000      -0.468449       -12.7471
  24   1.0000      -0.458611       -12.4794
  25   1.0000      -0.456371       -12.4185
  26   1.0000      -0.449008       -12.2181
  27   0.0000       0.140926         3.8348
  28   0.0000       0.148062         4.0290
  29   0.0000       0.193287         5.2596
  30   0.0000       0.202136         5.5004
  31   0.0000       0.208359         5.6697

MULLIKEN ATOMIC CHARGES AND SPIN POPULATIONS
--------------------------------------------
   0 C :   -0.087851    1.214115
   1 C :   -0.050940   -0.142004
   2 H :    0.045799   -0.076456
   3 H :    0.045903   -0.076462
   4 C :   -0.055802    0.047073
   5 H :    0.029486    0.014908
   6 H :    0.029754    0.014829
   7 C :   -0.057586    0.008172
   8 H :    0.023211   -0.002074
   9 H :    0.022587   -0.001854
  10 H :    0.019954    0.000163
  11 H :    0.026741    0.000572
  12 C :   -0.048578    0.049545
  13 H :    0.021187    0.002345
  14 H :    0.021456   -0.002903
  15 C :   -0.035594   -0.141623
  16 H :    0.030935    0.027565
  17 H :    0.027767    0.008094
  18 C :   -0.101961    1.212931
  19 H :    0.048823   -0.079381
  20 H :    0.044709   -0.077555
Sum of atomic charges         :   -0.0000000

LOEWDIN ATOMIC CHARGES AND SPIN POPULATIONS
-------------------------------------------
   0 C :    0.001196    0.971636
   1 C :   -0.056692   -0.021052
   2 H :    0.005291   -0.008453
   3 H :    0.005339   -0.008456
   4 C :   -0.031113    0.042869
   5 H :    0.021829    0.009012
   6 H :    0.021923    0.008939
   7 C :   -0.035121    0.006245
   8 H :    0.016231   -0.000284
   9 H :    0.015801   -0.000020
  10 H :    0.015631    0.000206
  11 H :    0.015907    0.002278
  12 C :   -0.030384    0.041087
  13 H :    0.017546    0.002171
  14 H :    0.015988   -0.000505
  15 C :   -0.056132   -0.021932
  16 H :    0.025358    0.018867
  17 H :    0.021428    0.003565
  18 C :   -0.000385    0.971673
  19 H :    0.005550   -0.008920
  20 H :    0.004810   -0.008927

  Mayer bond orders larger than 0.100000
B(  0-C ,  1-C ) :   1.0636 B(  0-C ,  2-H ) :   0.9767 B(  0-C ,  3-H ) :   0.9767
B(  1-C ,  4-C ) :   1.0402 B(  1-C ,  5-H ) :   0.9644 B(  1-C ,  6-H ) :   0.9643
B(  4-C ,  7-C ) :   1.0566 B(  4-C ,  8-H ) :   0.9633 B(  4-C ,  9-H ) :   0.9635
B(  7-C , 10-H ) :   0.9620 B(  7-C , 11-H ) :   0.9610 B(  7-C , 12-C ) :   1.0426
B( 12-C , 13-H ) :   0.9657 B( 12-C , 14-H ) :   0.9631 B( 12-C , 15-C ) :   1.0585
B( 15-C , 16-H ) :   0.9674 B( 15-C , 17-H ) :   0.9655 B( 15-C , 18-C ) :   1.0462
B( 18-C , 19-H ) :   0.9783 B( 18-C , 20-H ) :   0.9773

FINAL SINGLE POINT ENERGY      -273.158746067696

DIPOLE MOMENT
-------------
                                X             Y             Z
Electronic contribution:      0.09421       0.14195      -0.00463
Nuclear contribution   :     -0.08888      -0.22844      -0.02714
                        -----------------------------------------
Total Dipole Moment    :      0.00533      -0.08649      -0.03178
                        -----------------------------------------
Magnitude (a.u.)       :      0.09230
Magnitude (Debye)      :      0.23460

Rotational constants in cm-1:     0.281333     0.028707     0.027530
Rotational constants in MHz :  8434.155340   860.619249   825.340837

                             ****ORCA TERMINATED NORMALLY****
TOTAL RUN TIME: 0 days 0 hours 0 minutes 8 seconds 944 msec
