 Gaussian 16, Revision A.03,
 Gaussian 16:  ES64L-G16RevA.03 25-Dec-2016

 -----------------------
 #p RHF/cc-pVTZ MP2=Full
 -----------------------

 ---------------------------------
 2,7-dicl-dibenzene SP MP2 cc-pVDZ
 ---------------------------------
 Symbolic Z-matrix:
 Charge =  0 Multiplicity = 1

                         Standard orientation:
 ---------------------------------------------------------------------
 Center     Atomic      Atomic             Coordinates (Angstroms)
 Number     Number       Type             X           Y           Z
 ---------------------------------------------------------------------
      1          6           0        2.244851    2.071295    0.751392
      2          6           0        3.304207    1.300888    0.295737
      3          6           0        3.045185    0.017738   -0.158120
      4          6           0        1.759769   -0.498571   -0.162997
      5          6           0        0.693974    0.275570    0.295604
      6          6           0        0.952908    1.567889    0.752876
      7          1           0        2.431824    3.072719    1.115696
      8          1           0        4.313802    1.684902    0.291253
      9          1           0        1.591308   -1.495485   -0.542306
     10          1           0        0.143223    2.177007    1.130202
     11          6           0       -0.693966   -0.275587    0.295567
     12          6           0       -1.759785    0.498546   -0.163005
     13          6           0       -0.952881   -1.567887    0.752886
     14          6           0       -3.045206   -0.017708   -0.158130
     15          1           0       -1.591168    1.495446   -0.542292
     16          6           0       -2.244844   -2.071272    0.751396
     17          1           0       -0.143236   -2.177042    1.130233
     18          6           0       -3.304192   -1.300884    0.295735
     19          1           0       -2.431844   -3.072681    1.115730
     20          1           0       -4.313786   -1.684904    0.291264
     21         17           0        4.357579   -0.965630   -0.743634
     22         17           0       -4.357593    0.965627   -0.743627
 ---------------------------------------------------------------------

 SCF Done:  E(RHF) =  -1378.27043210     A.U. after   15 cycles
 E2 =    -0.2511685213D+01 EUMP2 =    -0.13807821173131D+04

 The electronic state is 1-A.
 Alpha  occ. eigenvalues -- -104.84220-104.84220 -11.30818 -11.30818 -11.26606
 Alpha  occ. eigenvalues --  -11.26535 -11.25303 -11.25303 -11.25262 -11.25262
 Alpha  occ. eigenvalues --  -11.25145 -11.25145 -11.24802 -11.24801 -10.56725
 Alpha  occ. eigenvalues --  -10.56725  -8.03414  -8.03413  -8.03224  -8.03223
 Alpha  occ. eigenvalues --   -8.03222  -8.03221  -1.20680  -1.19342  -1.13993
 Alpha  occ. eigenvalues --   -1.11779  -1.06569  -1.02371  -1.00245  -0.99637
 Alpha  occ. eigenvalues --   -0.87784  -0.85173  -0.82144  -0.79998  -0.72449
 Alpha  occ. eigenvalues --   -0.69984  -0.67297  -0.65973  -0.64431  -0.62636
 Alpha  occ. eigenvalues --   -0.60641  -0.59704  -0.59068  -0.55697  -0.54846
 Alpha  occ. eigenvalues --   -0.54568  -0.52416  -0.51116  -0.50809  -0.48246
 Alpha  occ. eigenvalues --   -0.46773  -0.45998  -0.45628  -0.38177  -0.34719
 Alpha  occ. eigenvalues --   -0.34584  -0.32293
 Alpha virt. eigenvalues --    0.08083   0.10782   0.10790   0.13538   0.14220
 Alpha virt. eigenvalues --    0.14539   0.16299   0.16970   0.18527   0.19664
 Alpha virt. eigenvalues --    0.20702   0.20840   0.21926   0.22768   0.30565

 Mulliken charges:
               1
     1  C   -0.112502
     2  C   -0.196411
     3  C    0.134498
     4  C   -0.223063
     5  C    0.079959
     6  C   -0.197174
     7  H    0.159890
     8  H    0.171843
     9  H    0.175209
    10  H    0.163385
    11  C    0.079955
    12  C   -0.223042
    13  C   -0.197182
    14  C    0.134479
    15  H    0.175200
    16  C   -0.112501
    17  H    0.163389
    18  C   -0.196400
    19  H    0.159886
    20  H    0.171838
    21  Cl  -0.155639
    22  Cl  -0.155616
 Sum of Mulliken charges =  -0.00000

 Dipole moment (field-independent basis, Debye):
    X=             -0.0001    Y=              0.0001    Z=              1.2919  Tot=              1.2919
 Quadrupole moment (field-independent basis, Debye-Ang):
   XX=           -102.7610   YY=            -86.1390   ZZ=            -99.3314
   XY=              9.5297   XZ=              0.0002   YZ=             -0.0001

 Normal termination of Gaussian 16 at Wed May  4 14:43:50 2022.
