                         Program Version 5.0.0 -  RELEASE  -
|  1> ! B3LYP/G cc-pVTZ TightSCF NoRI
|  2>
|  3> %pal
|  4>     nprocs 16
|  5> end
|  6>
|  7> %scf
|  8>     STABPerform true
|  9> end
| 10>
| 11> *xyz 2 1
| 12> Fe -0.64257176050830  0.51803920561668  0.11515259480577
| 13>  O  0.11174687498777  2.15027362958097 -0.78003307659188
| 14>  H  0.70766775417542  2.71590643817051 -0.25346860209865
| 15>  O -1.31193844940493 -0.30254437211926 -1.59153974321848
| 16>  H -1.93648366806763  0.13093135988795 -2.20090760771949
| 17>  O  0.02720918798052  1.33940572113505  1.82122676893196
| 18>  H  0.65258765622944  0.90686870076571  2.43040311553976
| 19>  O -1.39648053530566 -1.11444807905756  1.01023916292248
| 20>  H -1.99331392681300 -1.67940484230818  0.48397490889195
| 21>  O -2.28682023617329  1.63340828371306  0.41005372492049
| 22>  H -2.35377021104600  2.47291065207153 -0.08301808819513
| 23>  O  1.00194372931180 -0.59712335622834 -0.17950165163229
| 24>  H  1.06807766676477 -1.43758842942053  0.31202545851205
| 25>  H -3.18922098471738  1.27280247171927  0.48036417156888
| 26>  H -0.66521991563992 -0.78352006296416 -2.14179468111308
| 27>  H  1.90454646424149 -0.23678289755293 -0.24845043594753
| 28>  H  0.43776650602076  2.17113603799071 -1.69794346797289
| 29>  H -0.61875604533523  1.82123954705219  2.37159866149671
| 30>  H -1.72126010670064 -1.13595000805262  1.92856878689935
| 31> *
| 32>
| 33>                          ****END OF INPUT****

CARTESIAN COORDINATES (ANGSTROEM)
---------------------------------
  Fe    -0.642572    0.518039    0.115153
  O      0.111747    2.150274   -0.780033
  H      0.707668    2.715906   -0.253469
  O     -1.311938   -0.302544   -1.591540
  H     -1.936484    0.130931   -2.200908
  O      0.027209    1.339406    1.821227
  H      0.652588    0.906869    2.430403
  O     -1.396481   -1.114448    1.010239
  H     -1.993314   -1.679405    0.483975
  O     -2.286820    1.633408    0.410054
  H     -2.353770    2.472911   -0.083018
  O      1.001944   -0.597123   -0.179502
  H      1.068078   -1.437588    0.312025
  H     -3.189221    1.272802    0.480364
  H     -0.665220   -0.783520   -2.141795
  H      1.904546   -0.236783   -0.248450
  H      0.437767    2.171136   -1.697943
  H     -0.618756    1.821240    2.371599
  H     -1.721260   -1.135950    1.928569

 Total Charge           Charge          ....    2
 Multiplicity           Mult            ....    1
 Number of Electrons    NEL             ....   84
 Basis Dimension        Dim             ....  416
FINAL SINGLE POINT ENERGY         0.000000000000   (Wavefunction not fully converged!)
                             ****ORCA TERMINATED NORMALLY****
TOTAL RUN TIME: 0 days 0 hours 6 minutes 13 seconds 411 msec
