                         Program Version 4.1.1  - RELEASE  -
|  1> ! B97-3c freq tightSCF noautostart miniprint nopop
|  2> %maxcore 1000
|  3> %pal nprocs  4 end
|  4> * xyz   0   1
|  5>   C   -0.00000001105265      0.00000000379637     -0.59991814149605
|  6>   H   0.00000001025557     -0.00000000549355     -1.66126806122059
|  7>   C   -0.00000000866140      0.00000000888790      0.59991814013281
|  8>   H   0.00000000945848     -0.00000000719072      1.66126806258383
|  9>  *
| 10>
| 11>                          ****END OF INPUT****

CARTESIAN COORDINATES (ANGSTROEM)
---------------------------------
  C     -0.000000    0.000000   -0.599918
  H      0.000000   -0.000000   -1.661268
  C     -0.000000    0.000000    0.599918
  H      0.000000   -0.000000    1.661268

ORBITAL ENERGIES
----------------

  NO   OCC          E(Eh)            E(eV)
   0   2.0000      -9.900953      -269.4186
   1   2.0000      -9.898781      -269.3595
   2   2.0000      -0.687255       -18.7012
   3   2.0000      -0.520909       -14.1747
   4   2.0000      -0.452381       -12.3099
   5   2.0000      -0.259711        -7.0671
   6   2.0000      -0.259711        -7.0671
   7   0.0000      -0.000004        -0.0001
   8   0.0000      -0.000004        -0.0001
   9   0.0000       0.049500         1.3470
  10   0.0000       0.083087         2.2609
  11   0.0000       0.122353         3.3294

Total SCF time: 0 days 0 hours 0 min 3 sec

Dispersion correction           -0.003251987
FINAL SINGLE POINT ENERGY       -77.286246091182

DIPOLE MOMENT
-------------
                                X             Y             Z
Electronic contribution:     -0.00000       0.00000      -0.00000
Nuclear contribution   :      0.00000      -0.00000       0.00000
                        -----------------------------------------
Total Dipole Moment    :      0.00000      -0.00000      -0.00000
                        -----------------------------------------
Magnitude (a.u.)       :      0.00000
Magnitude (Debye)      :      0.00000

Dispersion correction in the Hessian             ... done   (      0.4 sec)

VIBRATIONAL FREQUENCIES
-----------------------

Scaling factor for frequencies =  1.000000000  (already applied!)

   0:         0.00 cm**-1
   1:         0.00 cm**-1
   2:         0.00 cm**-1
   3:         0.00 cm**-1
   4:         0.00 cm**-1
   5:       507.42 cm**-1
   6:       507.42 cm**-1
   7:       741.31 cm**-1
   8:       741.31 cm**-1
   9:      2045.57 cm**-1
  10:      3372.13 cm**-1
  11:      3473.31 cm**-1

IR SPECTRUM
-----------

 Mode    freq (cm**-1)   T**2         TX         TY         TZ
-------------------------------------------------------------------
   5:       507.42    0.000000  (  0.000002   0.000001   0.000004)
   6:       507.42    0.000000  (  0.000002  -0.000002   0.000008)
   7:       741.31  117.919583  (  5.531868   9.344411   0.000006)
   8:       741.31  117.919583  ( -9.344411   5.531868   0.000002)
   9:      2045.57    0.000000  ( -0.000000   0.000000  -0.000000)
  10:      3372.13   59.893600  (  0.000000   0.000000  -7.739096)
  11:      3473.31    0.000000  ( -0.000000   0.000000   0.000001)

--------------------------
THERMOCHEMISTRY AT 298.15K
--------------------------

Temperature         ... 298.15 K
Pressure            ... 1.00 atm
Total Mass          ... 26.04 AMU
The molecule is recognized as being linear

Throughout the following assumptions are being made:
  (1) The electronic state is orbitally nondegenerate
  (2) There are no thermally accessible electronically excited states
  (3) Hindered rotations indicated by low frequency modes are not
      treated as such but are treated as vibrations and this may
      cause some error
  (4) All equations used are the standard statistical mechanics
      equations for an ideal gas
  (5) All vibrations are strictly harmonic

freq.     507.42  E(vib)   ...       0.14
freq.     507.42  E(vib)   ...       0.14
freq.     741.31  E(vib)   ...       0.06
freq.     741.31  E(vib)   ...       0.06
freq.    2045.57  E(vib)   ...       0.00
freq.    3372.13  E(vib)   ...       0.00
freq.    3473.31  E(vib)   ...       0.00

------------
INNER ENERGY
------------

The inner energy is: U= E(el) + E(ZPE) + E(vib) + E(rot) + E(trans)
    E(el)   - is the total energy from the electronic structure calculation
              = E(kin-el) + E(nuc-el) + E(el-el) + E(nuc-nuc)
    E(ZPE)  - the the zero temperature vibrational energy from the frequency calculation
    E(vib)  - the the finite temperature correction to E(ZPE) due to population
              of excited vibrational states
    E(rot)  - is the rotational thermal energy
    E(trans)- is the translational thermal energy

Summary of contributions to the inner energy U:
Electronic energy                ...    -77.28624609 Eh
Zero point energy                ...      0.02594484 Eh      16.28 kcal/mol
Thermal vibrational correction   ...      0.00063212 Eh       0.40 kcal/mol
Thermal rotational correction    ...      0.00094418 Eh       0.59 kcal/mol
Thermal translational correction ...      0.00141627 Eh       0.89 kcal/mol
-----------------------------------------------------------------------
Total thermal energy                    -77.25730867 Eh

Summary of corrections to the electronic energy:
(perhaps to be used in another calculation)
Total thermal correction                  0.00299257 Eh       1.88 kcal/mol
Non-thermal (ZPE) correction              0.02594484 Eh      16.28 kcal/mol
-----------------------------------------------------------------------
Total correction                          0.02893742 Eh      18.16 kcal/mol

--------
ENTHALPY
--------

The enthalpy is H = U + kB*T
                kB is Boltzmann's constant
Total free energy                 ...    -77.25730867 Eh
Thermal Enthalpy correction       ...      0.00094421 Eh       0.59 kcal/mol
-----------------------------------------------------------------------
Total Enthalpy                    ...    -77.25636446 Eh

Note: Rotational entropy computed according to Herzberg
Infrared and Raman Spectra, Chapter V,1, Van Nostrand Reinhold, 1945
Point Group:  Dinfh, Symmetry Number:   2
Rotational constants in cm-1:     0.000000     1.186378     1.186378

Vibrational entropy computed according to the QRRHO of S. Grimme
Chem.Eur.J. 2012 18 9955

-------
ENTROPY
-------

The entropy contributions are T*S = T*(S(el)+S(vib)+S(rot)+S(trans))
     S(el)   - electronic entropy
     S(vib)  - vibrational entropy
     S(rot)  - rotational entropy
     S(trans)- translational entropy
The entropies will be listed as mutliplied by the temperature to get
units of energy

Electronic entropy                ...      0.00000000 Eh      0.00 kcal/mol
Vibrational entropy               ...      0.00085741 Eh      0.54 kcal/mol
Rotational entropy                ...      0.00516444 Eh      3.24 kcal/mol
Translational entropy             ...      0.01696549 Eh     10.65 kcal/mol
-----------------------------------------------------------------------
Final entropy term                ...      0.02298734 Eh     14.42 kcal/mol

-------------------
GIBBS FREE ENTHALPY
-------------------

The Gibbs free enthalpy is G = H - T*S

Total enthalpy                    ...    -77.25636446 Eh
Total entropy correction          ...     -0.02298734 Eh    -14.42 kcal/mol
-----------------------------------------------------------------------
Final Gibbs free enthalpy         ...    -77.27935180 Eh

For completeness - the Gibbs free enthalpy minus the electronic energy
G-E(el)                           ...      0.00689429 Eh      4.33 kcal/mol

                             ****ORCA TERMINATED NORMALLY****
TOTAL RUN TIME: 0 days 0 hours 0 minutes 13 seconds 235 msec
