                         Program Version 5.0.0 -  RELEASE  -
|  1> ! r2scan-3c freq opt noautostart miniprint nopop
|  2> %maxcore  1000
|  3> %pal nprocs   8 end
|  4> * xyz   0   1
|  5> C      0.00000000    1.39661199    0.00000000
|  6> C      1.20950146    0.69830599    0.00000000
|  7> C      1.20950146   -0.69830600    0.00000000
|  8> C     -0.00000000   -1.39661199    0.00000000
|  9> C     -1.20950146   -0.69830599    0.00000000
| 10> C     -1.20950146    0.69830600    0.00000000
| 11> H      0.00000000    2.48362808    0.00000000
| 12> H      2.15088501    1.24181404    0.00000000
| 13> H      2.15088501   -1.24181404    0.00000000
| 14> H     -0.00000000   -2.48362808    0.00000000
| 15> H     -2.15088501   -1.24181404    0.00000000
| 16> H     -2.15088501    1.24181404    0.00000000
| 17>  *
| 18>
| 19>                          ****END OF INPUT****
Dispersion correction           -0.003306124
FINAL SINGLE POINT ENERGY      -232.183042660828
Dispersion correction            ...
Dispersion correction           -0.003309781
FINAL SINGLE POINT ENERGY      -232.183141604269
Dispersion correction            ...
Dispersion correction           -0.003310447
FINAL SINGLE POINT ENERGY      -232.183144592954
Dispersion correction            ...
                    ***********************HURRAY********************

CARTESIAN COORDINATES (ANGSTROEM)
---------------------------------
  C      0.000000    1.392331   -0.000000
  C      1.205766    0.696173    0.000000
  C      1.205766   -0.696173    0.000000
  C     -0.000000   -1.392331   -0.000000
  C     -1.205766   -0.696173    0.000000
  C     -1.205766    0.696173    0.000000
  H     -0.000000    2.478677   -0.000000
  H      2.146576    1.239362    0.000000
  H      2.146576   -1.239362   -0.000000
  H     -0.000000   -2.478677   -0.000000
  H     -2.146576   -1.239362    0.000000
  H     -2.146576    1.239362    0.000000

ORBITAL ENERGIES
----------------

  NO   OCC          E(Eh)            E(eV)
   0   2.0000     -10.038021      -273.1484
   1   2.0000     -10.037822      -273.1430
   2   2.0000     -10.037819      -273.1429
   3   2.0000     -10.037379      -273.1310
   4   2.0000     -10.037376      -273.1309
   5   2.0000     -10.037161      -273.1250
   6   2.0000      -0.822168       -22.3723
   7   2.0000      -0.714777       -19.4501
   8   2.0000      -0.714761       -19.4496
   9   2.0000      -0.571826       -15.5602
  10   2.0000      -0.571816       -15.5599
  11   2.0000      -0.492493       -13.4014
  12   2.0000      -0.430039       -11.7020
  13   2.0000      -0.415739       -11.3128
  14   2.0000      -0.390428       -10.6241
  15   2.0000      -0.390414       -10.6237
  16   2.0000      -0.344248        -9.3675
  17   2.0000      -0.313443        -8.5292
  18   2.0000      -0.313441        -8.5292
  19   2.0000      -0.237209        -6.4548
  20   2.0000      -0.237197        -6.4545
  21   0.0000      -0.033213        -0.9038
  22   0.0000      -0.033200        -0.9034
  23   0.0000       0.093128         2.5341
  24   0.0000       0.120511         3.2793
  25   0.0000       0.133333         3.6282

Total SCF time: 0 days 0 hours 0 min 0 sec

Dispersion correction           -0.003310439
FINAL SINGLE POINT ENERGY      -232.183144598610

DIPOLE MOMENT
-------------
                                X             Y             Z
Electronic contribution:     -0.00000       0.00000      -0.00000
Nuclear contribution   :      0.00000      -0.00000       0.00000
                        -----------------------------------------
Total Dipole Moment    :     -0.00000      -0.00000       0.00000
                        -----------------------------------------
Magnitude (a.u.)       :      0.00000
Magnitude (Debye)      :      0.00000

Dispersion correction in the Hessian             ...

VIBRATIONAL FREQUENCIES
-----------------------

Scaling factor for frequencies =  1.000000000  (already applied!)

   0:         0.00 cm**-1
   1:         0.00 cm**-1
   2:         0.00 cm**-1
   3:         0.00 cm**-1
   4:         0.00 cm**-1
   5:         0.00 cm**-1
   6:       405.20 cm**-1
   7:       405.30 cm**-1
   8:       622.99 cm**-1
   9:       623.11 cm**-1
  10:       676.72 cm**-1
  11:       720.24 cm**-1
  12:       858.17 cm**-1
  13:       858.61 cm**-1
  14:       976.53 cm**-1
  15:       976.57 cm**-1
  16:      1004.92 cm**-1
  17:      1015.49 cm**-1
  18:      1034.16 cm**-1
  19:      1062.21 cm**-1
  20:      1062.39 cm**-1
  21:      1179.41 cm**-1
  22:      1202.09 cm**-1
  23:      1202.15 cm**-1
  24:      1356.57 cm**-1
  25:      1375.13 cm**-1
  26:      1509.42 cm**-1
  27:      1509.44 cm**-1
  28:      1632.83 cm**-1
  29:      1633.17 cm**-1
  30:      3157.50 cm**-1
  31:      3166.08 cm**-1
  32:      3166.40 cm**-1
  33:      3181.07 cm**-1
  34:      3181.16 cm**-1
  35:      3190.72 cm**-1

IR SPECTRUM
-----------

 Mode   freq       eps      Int      T**2         TX        TY        TZ
       cm**-1   L/(mol*cm) km/mol    a.u.
----------------------------------------------------------------------------
  6:    405.20   0.000000    0.00  0.000000  ( 0.000000  0.000000 -0.000000)
  7:    405.30   0.000000    0.00  0.000000  (-0.000000  0.000000  0.000143)
  8:    622.99   0.000000    0.00  0.000000  ( 0.000000 -0.000000 -0.000000)
  9:    623.11   0.000000    0.00  0.000000  (-0.000000 -0.000000  0.000000)
 10:    676.72   0.025824  130.51  0.011909  ( 0.000000  0.000000 -0.109127)
 11:    720.24   0.000000    0.00  0.000000  ( 0.000000  0.000000  0.000000)
 12:    858.17   0.000000    0.00  0.000000  (-0.000000 -0.000000 -0.000000)
 13:    858.61   0.000000    0.00  0.000000  (-0.000000 -0.000000  0.000000)
 14:    976.53   0.000000    0.00  0.000000  (-0.000000  0.000000 -0.000000)
 15:    976.57   0.000000    0.00  0.000000  ( 0.000000 -0.000000 -0.000220)
 16:   1004.92   0.000000    0.00  0.000000  ( 0.000000 -0.000000 -0.000000)
 17:   1015.49   0.000000    0.00  0.000000  ( 0.000000  0.000000 -0.000000)
 18:   1034.16   0.000000    0.00  0.000000  ( 0.000000 -0.000019  0.000000)
 19:   1062.21   0.001418    7.16  0.000416  ( 0.000012 -0.020408  0.000000)
 20:   1062.39   0.001415    7.15  0.000416  (-0.020390 -0.000012  0.000000)
 21:   1179.41   0.000000    0.00  0.000000  ( 0.000080  0.000000  0.000000)
 22:   1202.09   0.000000    0.00  0.000000  (-0.000000  0.000000 -0.000000)
 23:   1202.15   0.000000    0.00  0.000000  (-0.000000 -0.000000  0.000000)
 24:   1356.57   0.000000    0.00  0.000000  ( 0.000037 -0.000000 -0.000000)
 25:   1375.13   0.000000    0.00  0.000000  ( 0.000000 -0.000000  0.000000)
 26:   1509.42   0.001676    8.47  0.000347  ( 0.000112 -0.018615  0.000000)
 27:   1509.44   0.001693    8.55  0.000350  (-0.018706 -0.000112  0.000000)
 28:   1632.83   0.000000    0.00  0.000000  ( 0.000000 -0.000000 -0.000000)
 29:   1633.17   0.000000    0.00  0.000000  ( 0.000000 -0.000000 -0.000000)
 30:   3157.50   0.000000    0.00  0.000000  ( 0.000000 -0.000043 -0.000000)
 31:   3166.08   0.000000    0.00  0.000000  ( 0.000000 -0.000000  0.000000)
 32:   3166.40   0.000000    0.00  0.000000  (-0.000000  0.000000  0.000000)
 33:   3181.07   0.004963   25.08  0.000487  ( 0.000001 -0.022066 -0.000000)
 34:   3181.16   0.005016   25.35  0.000492  (-0.022183 -0.000001  0.000000)
 35:   3190.72   0.000000    0.00  0.000000  (-0.000000  0.000000  0.000000)

--------------------------
THERMOCHEMISTRY AT 298.15K
--------------------------

Temperature         ... 298.15 K
Pressure            ... 1.00 atm
Total Mass          ... 78.11 AMU

Throughout the following assumptions are being made:
  (1) The electronic state is orbitally nondegenerate
  (2) There are no thermally accessible electronically excited states
  (3) Hindered rotations indicated by low frequency modes are not
      treated as such but are treated as vibrations and this may
      cause some error
  (4) All equations used are the standard statistical mechanics
      equations for an ideal gas
  (5) All vibrations are strictly harmonic

freq.     405.20  E(vib)   ...       0.19
freq.     405.30  E(vib)   ...       0.19
freq.     622.99  E(vib)   ...       0.09
freq.     623.11  E(vib)   ...       0.09
freq.     676.72  E(vib)   ...       0.08
freq.     720.24  E(vib)   ...       0.07
freq.     858.17  E(vib)   ...       0.04
freq.     858.61  E(vib)   ...       0.04
freq.     976.53  E(vib)   ...       0.03
freq.     976.57  E(vib)   ...       0.03
freq.    1004.92  E(vib)   ...       0.02
freq.    1015.49  E(vib)   ...       0.02
freq.    1034.16  E(vib)   ...       0.02
freq.    1062.21  E(vib)   ...       0.02
freq.    1062.39  E(vib)   ...       0.02
freq.    1179.41  E(vib)   ...       0.01
freq.    1202.09  E(vib)   ...       0.01
freq.    1202.15  E(vib)   ...       0.01
freq.    1356.57  E(vib)   ...       0.01
freq.    1375.13  E(vib)   ...       0.01
freq.    1509.42  E(vib)   ...       0.00
freq.    1509.44  E(vib)   ...       0.00
freq.    1632.83  E(vib)   ...       0.00
freq.    1633.17  E(vib)   ...       0.00
freq.    3157.50  E(vib)   ...       0.00
freq.    3166.08  E(vib)   ...       0.00
freq.    3166.40  E(vib)   ...       0.00
freq.    3181.07  E(vib)   ...       0.00
freq.    3181.16  E(vib)   ...       0.00
freq.    3190.72  E(vib)   ...       0.00

------------
INNER ENERGY
------------

The inner energy is: U= E(el) + E(ZPE) + E(vib) + E(rot) + E(trans)
    E(el)   - is the total energy from the electronic structure calculation
              = E(kin-el) + E(nuc-el) + E(el-el) + E(nuc-nuc)
    E(ZPE)  - the the zero temperature vibrational energy from the frequency calculation
    E(vib)  - the the finite temperature correction to E(ZPE) due to population
              of excited vibrational states
    E(rot)  - is the rotational thermal energy
    E(trans)- is the translational thermal energy

Summary of contributions to the inner energy U:
Electronic energy                ...   -232.18314460 Eh
Zero point energy                ...      0.10011578 Eh      62.82 kcal/mol
Thermal vibrational correction   ...      0.00158279 Eh       0.99 kcal/mol
Thermal rotational correction    ...      0.00141627 Eh       0.89 kcal/mol
Thermal translational correction ...      0.00141627 Eh       0.89 kcal/mol
-----------------------------------------------------------------------
Total thermal energy                   -232.07861349 Eh

Summary of corrections to the electronic energy:
(perhaps to be used in another calculation)
Total thermal correction                  0.00441533 Eh       2.77 kcal/mol
Non-thermal (ZPE) correction              0.10011578 Eh      62.82 kcal/mol
-----------------------------------------------------------------------
Total correction                          0.10453111 Eh      65.59 kcal/mol

--------
ENTHALPY
--------

The enthalpy is H = U + kB*T
                kB is Boltzmann's constant
Total free energy                 ...   -232.07861349 Eh
Thermal Enthalpy correction       ...      0.00094421 Eh       0.59 kcal/mol
-----------------------------------------------------------------------
Total Enthalpy                    ...   -232.07766928 Eh

Note: Rotational entropy computed according to Herzberg
Infrared and Raman Spectra, Chapter V,1, Van Nostrand Reinhold, 1945
Point Group:  D2h, Symmetry Number:   4
Rotational constants in cm-1:     0.190636     0.190627     0.095316

Vibrational entropy computed according to the QRRHO of S. Grimme
Chem.Eur.J. 2012 18 9955

-------
ENTROPY
-------

The entropy contributions are T*S = T*(S(el)+S(vib)+S(rot)+S(trans))
     S(el)   - electronic entropy
     S(vib)  - vibrational entropy
     S(rot)  - rotational entropy
     S(trans)- translational entropy
The entropies will be listed as multiplied by the temperature to get
units of energy

Electronic entropy                ...      0.00000000 Eh      0.00 kcal/mol
Vibrational entropy               ...      0.00212876 Eh      1.34 kcal/mol
Rotational entropy                ...      0.01087647 Eh      6.83 kcal/mol
Translational entropy             ...      0.01852142 Eh     11.62 kcal/mol
-----------------------------------------------------------------------
Final entropy term                ...      0.03152666 Eh     19.78 kcal/mol

In case the symmetry of your molecule has not been determined correctly
or in case you have a reason to use a different symmetry number we print
out the resulting rotational entropy values for sn=1,12 :
 --------------------------------------------------------
|  sn= 1 | S(rot)=       0.01218539 Eh      7.65 kcal/mol|
|  sn= 2 | S(rot)=       0.01153093 Eh      7.24 kcal/mol|
|  sn= 3 | S(rot)=       0.01114810 Eh      7.00 kcal/mol|
|  sn= 4 | S(rot)=       0.01087647 Eh      6.83 kcal/mol|
|  sn= 5 | S(rot)=       0.01066579 Eh      6.69 kcal/mol|
|  sn= 6 | S(rot)=       0.01049364 Eh      6.58 kcal/mol|
|  sn= 7 | S(rot)=       0.01034809 Eh      6.49 kcal/mol|
|  sn= 8 | S(rot)=       0.01022202 Eh      6.41 kcal/mol|
|  sn= 9 | S(rot)=       0.01011081 Eh      6.34 kcal/mol|
|  sn=10 | S(rot)=       0.01001133 Eh      6.28 kcal/mol|
|  sn=11 | S(rot)=       0.00992134 Eh      6.23 kcal/mol|
|  sn=12 | S(rot)=       0.00983918 Eh      6.17 kcal/mol|
 --------------------------------------------------------

-------------------
GIBBS FREE ENERGY
-------------------

The Gibbs free energy is G = H - T*S

Total enthalpy                    ...   -232.07766928 Eh
Total entropy correction          ...     -0.03152666 Eh    -19.78 kcal/mol
-----------------------------------------------------------------------
Final Gibbs free energy         ...   -232.10919594 Eh

For completeness - the Gibbs free energy minus the electronic energy
G-E(el)                           ...      0.07394866 Eh     46.40 kcal/mol

                             ****ORCA TERMINATED NORMALLY****
TOTAL RUN TIME: 0 days 0 hours 0 minutes 57 seconds 615 msec
