                         Program Version 4.2.0 -  RELEASE  -
|  1> ! B3LYP/G 6-31G** optTS freq tightSCF noautostart miniprint nopop
|  2>  %maxcore 1000
|  3>  %pal nprocs  4 end
|  4>  %geom Calc_Hess true end
|  5>  * xyz   0   1
|  6>  C      0.56314246   -0.57635434    0.00000000
|  7>  N     -0.37519999    0.35694724    0.00000000
|  8>  H     -0.79524238   -1.09345422    0.00000000
|  9>  **                         ****END OF INPUT****
FINAL SINGLE POINT ENERGY       -93.308442998149
FINAL SINGLE POINT ENERGY       -93.335612832504
FINAL SINGLE POINT ENERGY       -93.343939151204
FINAL SINGLE POINT ENERGY       -93.344248556009
FINAL SINGLE POINT ENERGY       -93.344467082370
FINAL SINGLE POINT ENERGY       -93.344468432960
FINAL SINGLE POINT ENERGY       -93.344470491530
FINAL SINGLE POINT ENERGY       -93.344470542751
                    ***********************HURRAY********************

CARTESIAN COORDINATES (ANGSTROEM)
---------------------------------
  C      0.422570   -0.590740    0.000000
  N     -0.351215    0.315248    0.000000
  H     -0.678655   -1.037370    0.000000

ORBITAL ENERGIES
----------------

  NO   OCC          E(Eh)            E(eV)
   0   2.0000     -14.405500      -391.9936
   1   2.0000     -10.246663      -278.8259
   2   2.0000      -0.986053       -26.8319
   3   2.0000      -0.523138       -14.2353
   4   2.0000      -0.449686       -12.2366
   5   2.0000      -0.382978       -10.4214
   6   2.0000      -0.334169        -9.0932
   7   0.0000      -0.058854        -1.6015
   8   0.0000       0.009082         0.2471
   9   0.0000       0.065366         1.7787
  10   0.0000       0.316441         8.6108
  11   0.0000       0.525702        14.3051

Total SCF time: 0 days 0 hours 0 min 1 sec

FINAL SINGLE POINT ENERGY       -93.344470530916

DIPOLE MOMENT
-------------
                                X             Y             Z
Electronic contribution:      0.28933       0.47828      -0.00000
Nuclear contribution   :     -0.62019      -0.84142       0.00000
                        -----------------------------------------
Total Dipole Moment    :     -0.33087      -0.36314      -0.00000
                        -----------------------------------------
Magnitude (a.u.)       :      0.49127
Magnitude (Debye)      :      1.24871

VIBRATIONAL FREQUENCIES
-----------------------

Scaling factor for frequencies =  1.000000000  (already applied!)

   0:         0.00 cm**-1
   1:         0.00 cm**-1
   2:         0.00 cm**-1
   3:         0.00 cm**-1
   4:         0.00 cm**-1
   5:         0.00 cm**-1
   6:     -1133.64 cm**-1 ***imaginary mode***
   7:      2067.70 cm**-1
   8:      2631.14 cm**-1

IR SPECTRUM
-----------

 Mode    freq (cm**-1)   T**2         TX         TY         TZ
-------------------------------------------------------------------
   7:      2067.70    9.399250  (  2.786914   1.277639   0.000000)
   8:      2631.14  116.768748  ( -6.662360  -8.507744   0.000000)

--------------------------
THERMOCHEMISTRY AT 298.15K
--------------------------

Temperature         ... 298.15 K
Pressure            ... 1.00 atm
Total Mass          ... 27.03 AMU

Throughout the following assumptions are being made:
  (1) The electronic state is orbitally nondegenerate
  (2) There are no thermally accessible electronically excited states
  (3) Hindered rotations indicated by low frequency modes are not
      treated as such but are treated as vibrations and this may
      cause some error
  (4) All equations used are the standard statistical mechanics
      equations for an ideal gas
  (5) All vibrations are strictly harmonic

freq.    2067.70  E(vib)   ...       0.00
freq.    2631.14  E(vib)   ...       0.00

------------
INNER ENERGY
------------

The inner energy is: U= E(el) + E(ZPE) + E(vib) + E(rot) + E(trans)
    E(el)   - is the total energy from the electronic structure calculation
              = E(kin-el) + E(nuc-el) + E(el-el) + E(nuc-nuc)
    E(ZPE)  - the the zero temperature vibrational energy from the frequency calculation
    E(vib)  - the the finite temperature correction to E(ZPE) due to population
              of excited vibrational states
    E(rot)  - is the rotational thermal energy
    E(trans)- is the translational thermal energy

Summary of contributions to the inner energy U:
Electronic energy                ...    -93.34447053 Eh
Zero point energy                ...      0.01070476 Eh       6.72 kcal/mol
Thermal vibrational correction   ...      0.00000047 Eh       0.00 kcal/mol
Thermal rotational correction    ...      0.00141627 Eh       0.89 kcal/mol
Thermal translational correction ...      0.00141627 Eh       0.89 kcal/mol
-----------------------------------------------------------------------
Total thermal energy                    -93.33093275 Eh

Summary of corrections to the electronic energy:
(perhaps to be used in another calculation)
Total thermal correction                  0.00283302 Eh       1.78 kcal/mol
Non-thermal (ZPE) correction              0.01070476 Eh       6.72 kcal/mol
-----------------------------------------------------------------------
Total correction                          0.01353778 Eh       8.50 kcal/mol

--------
ENTHALPY
--------

The enthalpy is H = U + kB*T
                kB is Boltzmann's constant
Total free energy                 ...    -93.33093275 Eh
Thermal Enthalpy correction       ...      0.00094421 Eh       0.59 kcal/mol
-----------------------------------------------------------------------
Total Enthalpy                    ...    -93.32998854 Eh

Note: Rotational entropy computed according to Herzberg
Infrared and Raman Spectra, Chapter V,1, Van Nostrand Reinhold, 1945
Point Group:  Cs, Symmetry Number:   1
Rotational constants in cm-1:    13.784292     1.820813     1.608359

Vibrational entropy computed according to the QRRHO of S. Grimme
Chem.Eur.J. 2012 18 9955

-------
ENTROPY
-------

The entropy contributions are T*S = T*(S(el)+S(vib)+S(rot)+S(trans))
     S(el)   - electronic entropy
     S(vib)  - vibrational entropy
     S(rot)  - rotational entropy
     S(trans)- translational entropy
The entropies will be listed as mutliplied by the temperature to get
units of energy

Electronic entropy                ...      0.00000000 Eh      0.00 kcal/mol
Vibrational entropy               ...      0.00000052 Eh      0.00 kcal/mol
Rotational entropy                ...      0.00776501 Eh      4.87 kcal/mol
Translational entropy             ...      0.01701823 Eh     10.68 kcal/mol
-----------------------------------------------------------------------
Final entropy term                ...      0.02478376 Eh     15.55 kcal/mol

In case the symmetry of your molecule has not been determined correctly
or in case you have a reason to use a different symmetry number we print
out the resulting rotational entropy values for sn=1,12 :
 --------------------------------------------------------
|  sn= 1 | S(rot)=       0.00776501 Eh      4.87 kcal/mol|
|  sn= 2 | S(rot)=       0.00711055 Eh      4.46 kcal/mol|
|  sn= 3 | S(rot)=       0.00672772 Eh      4.22 kcal/mol|
|  sn= 4 | S(rot)=       0.00645609 Eh      4.05 kcal/mol|
|  sn= 5 | S(rot)=       0.00624541 Eh      3.92 kcal/mol|
|  sn= 6 | S(rot)=       0.00607326 Eh      3.81 kcal/mol|
|  sn= 7 | S(rot)=       0.00592772 Eh      3.72 kcal/mol|
|  sn= 8 | S(rot)=       0.00580164 Eh      3.64 kcal/mol|
|  sn= 9 | S(rot)=       0.00569043 Eh      3.57 kcal/mol|
|  sn=10 | S(rot)=       0.00559095 Eh      3.51 kcal/mol|
|  sn=11 | S(rot)=       0.00550096 Eh      3.45 kcal/mol|
|  sn=12 | S(rot)=       0.00541881 Eh      3.40 kcal/mol|
 --------------------------------------------------------

-------------------
GIBBS FREE ENERGY
-------------------

The Gibbs free energy is G = H - T*S

Total enthalpy                    ...    -93.32998854 Eh
Total entropy correction          ...     -0.02478376 Eh    -15.55 kcal/mol
-----------------------------------------------------------------------
Final Gibbs free energy         ...    -93.35477230 Eh

For completeness - the Gibbs free energy minus the electronic energy
G-E(el)                           ...     -0.01030177 Eh     -6.46 kcal/mol

                             ****ORCA TERMINATED NORMALLY****
TOTAL RUN TIME: 0 days 0 hours 0 minutes 50 seconds 150 msec
