                         Program Version 5.0.0 -  RELEASE  -
|  1> ! UHF def2-SVP Opt Freq
|  2>
|  3> %pal
|  4>     nprocs 16
|  5> end
|  6>
|  7> *xyz 2 1
|  8>  Fe                 6.20397196    1.03714637    0.17096759
|  9>  O                  8.02343961    0.99562593    0.15635557
| 10>  O                  6.24694430   -0.78162449    0.11972374
| 11>  O                  6.22607513    1.15774049   -1.64489818
| 12>  O                  4.38440248    1.01816527    0.20570458
| 13>  O                  6.16557932    2.85626904    0.21242489
| 14>  O                  6.16850601    1.06001114    1.99047834
| 15>  H                  4.06545864    1.78648828    0.68482314
| 16>  H                  4.08101507    0.21943896    0.64341723
| 17>  H                  6.97846238    3.18466572    0.60354733
| 18>  H                  5.41693185    3.14865831    0.73743487
| 19>  H                  6.90726982    0.55047930    2.33136739
| 20>  H                  5.34491271    0.67543823    2.29934360
| 21>  H                  8.36474659    1.75961228    0.62692374
| 22>  H                  8.32866067    0.19290442    0.58539903
| 23>  H                  7.07410906   -1.09285932    0.49459883
| 24>  H                  5.51267410   -1.13351772    0.62826915
| 25>  H                  6.97521418    0.66593956   -1.98916919
| 26>  H                  5.41263500    0.79176715   -1.99983292
| 27> *
| 28>
| 29>
| 30>                          ****END OF INPUT****
 Total Charge           Charge          ....    2
 Multiplicity           Mult            ....    1
 Number of Electrons    NEL             ....   84
FINAL SINGLE POINT ENERGY     -1717.420000865393
FINAL SINGLE POINT ENERGY     -1717.486025636271
FINAL SINGLE POINT ENERGY     -1717.536387540111
FINAL SINGLE POINT ENERGY     -1717.569684926642
FINAL SINGLE POINT ENERGY     -1717.589527080542
FINAL SINGLE POINT ENERGY     -1717.600301962311
FINAL SINGLE POINT ENERGY     -1717.606319840087
FINAL SINGLE POINT ENERGY     -1717.610194428647
FINAL SINGLE POINT ENERGY     -1717.613048062757
FINAL SINGLE POINT ENERGY     -1717.615403414271
FINAL SINGLE POINT ENERGY     -1717.639201406139
FINAL SINGLE POINT ENERGY     -1717.639219009965
FINAL SINGLE POINT ENERGY     -1717.639233121731
FINAL SINGLE POINT ENERGY     -1717.639243409372
FINAL SINGLE POINT ENERGY     -1717.639252181057
FINAL SINGLE POINT ENERGY     -1717.639259752725
FINAL SINGLE POINT ENERGY     -1717.639266317276
FINAL SINGLE POINT ENERGY     -1717.639269761068
FINAL SINGLE POINT ENERGY     -1717.639271339853
                    ***********************HURRAY********************

CARTESIAN COORDINATES (ANGSTROEM)
---------------------------------
  Fe     6.203970    0.952337    0.361441
  O      8.285168    0.959525    0.454310
  O      6.213283   -1.130399    0.298128
  O      6.298758    1.012410   -1.719008
  O      4.122967    0.945915    0.267140
  O      6.194874    3.035202    0.421724
  O      6.109854    0.889296    2.440346
  H      3.558033    1.711256    0.268244
  H      3.564201    0.177640    0.217761
  H      6.227340    3.619060   -0.328584
  H      6.158251    3.575917    1.203504
  H      6.850281    0.876900    3.037426
  H      5.317530    0.870849    2.966448
  H      8.844130    1.727425    0.507037
  H      8.849503    0.193764    0.459934
  H      6.252705   -1.668633   -0.485220
  H      6.180106   -1.716295    1.046806
  H      7.091536    1.033896   -2.244286
  H      5.558520    1.026284   -2.316272

 Multiplicity           Mult            ....    1
 Number of Electrons    NEL             ....   84
 Basis Dimension        Dim             ....  175

ORBITAL ENERGIES
----------------
                 SPIN UP ORBITALS
  NO   OCC          E(Eh)            E(eV)
   0   1.0000    -261.639170     -7119.5638
   1   1.0000     -32.202126      -876.2644
   2   1.0000     -27.691951      -753.5363
   3   1.0000     -27.691949      -753.5362
   4   1.0000     -27.691945      -753.5361
   5   1.0000     -20.897654      -568.6541
   6   1.0000     -20.897525      -568.6506
   7   1.0000     -20.897507      -568.6501
   8   1.0000     -20.897479      -568.6493
   9   1.0000     -20.897397      -568.6471
  10   1.0000     -20.897379      -568.6466
  11   1.0000      -4.423495      -120.3694
  12   1.0000      -3.005473       -81.7831
  13   1.0000      -3.005466       -81.7829
  14   1.0000      -3.005461       -81.7828
  15   1.0000      -1.681840       -45.7652
  16   1.0000      -1.672389       -45.5080
  17   1.0000      -1.672349       -45.5069
  18   1.0000      -1.672290       -45.5053
  19   1.0000      -1.669781       -45.4371
  20   1.0000      -1.669734       -45.4358
  21   1.0000      -1.064281       -28.9605
  22   1.0000      -1.064185       -28.9580
  23   1.0000      -1.064110       -28.9559
  24   1.0000      -1.062114       -28.9016
  25   1.0000      -1.062050       -28.8998
  26   1.0000      -1.061976       -28.8978
  27   1.0000      -1.002746       -27.2861
  28   1.0000      -0.949716       -25.8431
  29   1.0000      -0.949661       -25.8416
  30   1.0000      -0.949600       -25.8399
  31   1.0000      -0.944901       -25.7121
  32   1.0000      -0.944834       -25.7103
  33   1.0000      -0.879912       -23.9436
  34   1.0000      -0.879817       -23.9410
  35   1.0000      -0.879706       -23.9380
  36   1.0000      -0.852985       -23.2109
  37   1.0000      -0.852968       -23.2104
  38   1.0000      -0.852880       -23.2081
  39   1.0000      -0.811087       -22.0708
  40   1.0000      -0.811056       -22.0699
  41   1.0000      -0.811024       -22.0691
  42   0.0000      -0.183717        -4.9992
  43   0.0000      -0.103160        -2.8071
  44   0.0000      -0.103143        -2.8067
  45   0.0000      -0.103099        -2.8055
  46   0.0000      -0.077039        -2.0963

                 SPIN DOWN ORBITALS
  NO   OCC          E(Eh)            E(eV)
   0   1.0000    -261.639170     -7119.5638
   1   1.0000     -32.202126      -876.2644
   2   1.0000     -27.691951      -753.5363
   3   1.0000     -27.691949      -753.5362
   4   1.0000     -27.691945      -753.5361
   5   1.0000     -20.897654      -568.6541
   6   1.0000     -20.897525      -568.6506
   7   1.0000     -20.897507      -568.6501
   8   1.0000     -20.897479      -568.6493
   9   1.0000     -20.897397      -568.6471
  10   1.0000     -20.897379      -568.6466
  11   1.0000      -4.423495      -120.3694
  12   1.0000      -3.005473       -81.7831
  13   1.0000      -3.005466       -81.7829
  14   1.0000      -3.005461       -81.7828
  15   1.0000      -1.681840       -45.7652
  16   1.0000      -1.672389       -45.5080
  17   1.0000      -1.672349       -45.5069
  18   1.0000      -1.672290       -45.5053
  19   1.0000      -1.669781       -45.4371
  20   1.0000      -1.669734       -45.4358
  21   1.0000      -1.064281       -28.9605
  22   1.0000      -1.064185       -28.9580
  23   1.0000      -1.064110       -28.9559
  24   1.0000      -1.062114       -28.9016
  25   1.0000      -1.062050       -28.8998
  26   1.0000      -1.061976       -28.8978
  27   1.0000      -1.002746       -27.2861
  28   1.0000      -0.949716       -25.8431
  29   1.0000      -0.949661       -25.8416
  30   1.0000      -0.949600       -25.8399
  31   1.0000      -0.944901       -25.7121
  32   1.0000      -0.944834       -25.7103
  33   1.0000      -0.879912       -23.9436
  34   1.0000      -0.879817       -23.9410
  35   1.0000      -0.879706       -23.9380
  36   1.0000      -0.852985       -23.2109
  37   1.0000      -0.852968       -23.2104
  38   1.0000      -0.852880       -23.2081
  39   1.0000      -0.811087       -22.0708
  40   1.0000      -0.811056       -22.0699
  41   1.0000      -0.811024       -22.0691
  42   0.0000      -0.183717        -4.9992
  43   0.0000      -0.103160        -2.8071
  44   0.0000      -0.103143        -2.8067
  45   0.0000      -0.103099        -2.8055
  46   0.0000      -0.077039        -2.0963

MULLIKEN ATOMIC CHARGES AND SPIN POPULATIONS
--------------------------------------------
   0 Fe:    1.303369    0.000000
   1 O :   -0.383130    0.000000
   2 O :   -0.383127    0.000000
   3 O :   -0.383179    0.000000
   4 O :   -0.383145    0.000000
   5 O :   -0.383109    0.000000
   6 O :   -0.383089    0.000000
   7 H :    0.249612    0.000000
   8 H :    0.249658    0.000000
   9 H :    0.249600    0.000000
  10 H :    0.249557    0.000000
  11 H :    0.249647    0.000000
  12 H :    0.249644    0.000000
  13 H :    0.249626    0.000000
  14 H :    0.249587    0.000000
  15 H :    0.249588    0.000000
  16 H :    0.249602    0.000000
  17 H :    0.249619    0.000000
  18 H :    0.249670    0.000000
Sum of atomic charges         :    2.0000000

LOEWDIN ATOMIC CHARGES AND SPIN POPULATIONS
-------------------------------------------
   0 Fe:    0.654285    0.000000
   1 O :   -0.020904    0.000000
   2 O :   -0.021006    0.000000
   3 O :   -0.020917    0.000000
   4 O :   -0.020876    0.000000
   5 O :   -0.021036    0.000000
   6 O :   -0.020599    0.000000
   7 H :    0.122581    0.000000
   8 H :    0.122619    0.000000
   9 H :    0.122592    0.000000
  10 H :    0.122578    0.000000
  11 H :    0.122636    0.000000
  12 H :    0.122616    0.000000
  13 H :    0.122608    0.000000
  14 H :    0.122565    0.000000
  15 H :    0.122551    0.000000
  16 H :    0.122569    0.000000
  17 H :    0.122541    0.000000
  18 H :    0.122598    0.000000

  Mayer bond orders larger than 0.100000
B(  0-Fe,  1-O ) :   0.2182 B(  0-Fe,  2-O ) :   0.2183 B(  0-Fe,  3-O ) :   0.2183
B(  0-Fe,  4-O ) :   0.2183 B(  0-Fe,  5-O ) :   0.2182 B(  0-Fe,  6-O ) :   0.2186
B(  1-O , 13-H ) :   0.9468 B(  1-O , 14-H ) :   0.9468 B(  2-O , 15-H ) :   0.9468
B(  2-O , 16-H ) :   0.9468 B(  3-O , 17-H ) :   0.9468 B(  3-O , 18-H ) :   0.9468
B(  4-O ,  7-H ) :   0.9468 B(  4-O ,  8-H ) :   0.9468 B(  5-O ,  9-H ) :   0.9468
B(  5-O , 10-H ) :   0.9469 B(  6-O , 11-H ) :   0.9468 B(  6-O , 12-H ) :   0.9468

FINAL SINGLE POINT ENERGY     -1717.639272140927

DIPOLE MOMENT
-------------
                                X             Y             Z
Electronic contribution:     -0.00175       0.00206       0.00674
Nuclear contribution   :      0.00320       0.00155       0.00045
                        -----------------------------------------
Total Dipole Moment    :      0.00145       0.00362       0.00719
                        -----------------------------------------
Magnitude (a.u.)       :      0.00818
Magnitude (Debye)      :      0.02080

VIBRATIONAL FREQUENCIES
-----------------------

Scaling factor for frequencies =  1.000000000  (already applied!)

   0:         0.00 cm**-1
   1:         0.00 cm**-1
   2:         0.00 cm**-1
   3:         0.00 cm**-1
   4:         0.00 cm**-1
   5:         0.00 cm**-1
   6:       135.18 cm**-1
   7:       135.22 cm**-1
   8:       135.27 cm**-1
   9:       135.66 cm**-1
  10:       135.67 cm**-1
  11:       135.81 cm**-1
  12:       180.74 cm**-1
  13:       180.80 cm**-1
  14:       180.84 cm**-1
  15:       211.51 cm**-1
  16:       211.72 cm**-1
  17:       272.35 cm**-1
  18:       272.40 cm**-1
  19:       272.80 cm**-1
  20:       304.80 cm**-1
  21:       305.31 cm**-1
  22:       352.96 cm**-1
  23:       377.23 cm**-1
  24:       377.91 cm**-1
  25:       378.32 cm**-1
  26:       393.15 cm**-1
  27:       393.68 cm**-1
  28:       394.10 cm**-1
  29:       410.83 cm**-1
  30:       423.11 cm**-1
  31:       423.75 cm**-1
  32:       423.80 cm**-1
  33:       598.52 cm**-1
  34:       598.65 cm**-1
  35:       598.94 cm**-1
  36:       632.76 cm**-1
  37:       633.02 cm**-1
  38:       633.17 cm**-1
  39:      1764.55 cm**-1
  40:      1764.75 cm**-1
  41:      1764.79 cm**-1
  42:      1766.29 cm**-1
  43:      1766.38 cm**-1
  44:      1771.27 cm**-1
  45:      4074.32 cm**-1
  46:      4074.34 cm**-1
  47:      4076.05 cm**-1
  48:      4076.08 cm**-1
  49:      4076.08 cm**-1
  50:      4088.28 cm**-1
  51:      4158.29 cm**-1
  52:      4158.29 cm**-1
  53:      4158.40 cm**-1
  54:      4159.17 cm**-1
  55:      4159.20 cm**-1
  56:      4159.35 cm**-1

IR SPECTRUM
-----------

 Mode   freq       eps      Int      T**2         TX        TY        TZ
       cm**-1   L/(mol*cm) km/mol    a.u.
----------------------------------------------------------------------------
  6:    135.18   0.000037    0.19  0.000086  ( 0.008554  0.001785 -0.003045)
  7:    135.22   0.000043    0.22  0.000100  (-0.002298  0.005698 -0.007900)
  8:    135.27   0.000043    0.22  0.000098  ( 0.003222  0.005688 -0.007445)
  9:    135.66   0.001582    7.99  0.003639  ( 0.001142 -0.049335 -0.034688)
 10:    135.67   0.001526    7.71  0.003510  ( 0.055077  0.013485 -0.017160)
 11:    135.81   0.001515    7.65  0.003480  ( 0.022691 -0.030869  0.044859)
 12:    180.74   0.000004    0.02  0.000008  ( 0.001797 -0.002075  0.000469)
 13:    180.80   0.000005    0.02  0.000008  (-0.001884 -0.001324  0.001582)
 14:    180.84   0.000004    0.02  0.000007  (-0.000590 -0.001448 -0.002221)
 15:    211.51   0.000000    0.00  0.000000  (-0.000159  0.000100 -0.000132)
 16:    211.72   0.000001    0.00  0.000001  (-0.000288  0.000890  0.000084)
 17:    272.35   0.000001    0.01  0.000001  (-0.000602 -0.000474  0.000781)
 18:    272.40   0.000000    0.00  0.000000  (-0.000679 -0.000120 -0.000113)
 19:    272.80   0.000000    0.00  0.000000  ( 0.000090  0.000085  0.000070)
 20:    304.80   0.000000    0.00  0.000000  ( 0.000104 -0.000010 -0.000289)
 21:    305.31   0.000000    0.00  0.000000  ( 0.000018  0.000248 -0.000032)
 22:    352.96   0.000002    0.01  0.000002  ( 0.000145 -0.000222 -0.001253)
 23:    377.23   0.019325   97.66  0.015987  (-0.000702  0.126416  0.002294)
 24:    377.91   0.019225   97.16  0.015876  ( 0.125986  0.000774 -0.001563)
 25:    378.32   0.019704   99.58  0.016253  (-0.000671  0.002476 -0.127462)
 26:    393.15   0.000001    0.01  0.000001  ( 0.000354 -0.000702  0.000659)
 27:    393.68   0.000001    0.01  0.000001  ( 0.000101 -0.000266  0.000945)
 28:    394.10   0.000001    0.01  0.000001  (-0.000933  0.000239 -0.000352)
 29:    410.83   0.000071    0.36  0.000054  ( 0.003183  0.005316  0.003922)
 30:    423.11   0.091879  464.32  0.067766  ( 0.019373  0.253884  0.054161)
 31:    423.75   0.092110  465.49  0.067832  (-0.239743 -0.003444  0.101704)
 32:    423.80   0.091802  463.93  0.067598  (-0.100115  0.058694 -0.232657)
 33:    598.52   0.000002    0.01  0.000001  (-0.000853  0.000640  0.000094)
 34:    598.65   0.000001    0.00  0.000000  (-0.000423 -0.000417  0.000127)
 35:    598.94   0.000006    0.03  0.000003  (-0.001676  0.000504 -0.000383)
 36:    632.76   0.068140  344.35  0.033605  ( 0.020951 -0.106117  0.148004)
 37:    633.02   0.068205  344.68  0.033624  ( 0.010622 -0.147932 -0.107828)
 38:    633.17   0.068113  344.21  0.033570  ( 0.181697  0.021057 -0.010596)
 39:   1764.55   0.053878  272.28  0.009528  ( 0.001385 -0.006518  0.097386)
 40:   1764.75   0.055275  279.34  0.009774  ( 0.098857  0.000781 -0.001017)
 41:   1764.79   0.054765  276.76  0.009684  (-0.000746  0.098132  0.007307)
 42:   1766.29   0.001390    7.02  0.000246  (-0.001759 -0.003551  0.015161)
 43:   1766.38   0.000551    2.78  0.000097  (-0.001013  0.009281 -0.003178)
 44:   1771.27   0.000055    0.28  0.000010  ( 0.000131  0.001560  0.002683)
 45:   4074.32   0.000027    0.14  0.000002  ( 0.001411  0.000117  0.000299)
 46:   4074.34   0.000003    0.02  0.000000  ( 0.000090  0.000025 -0.000500)
 47:   4076.05   0.072437  366.07  0.005546  ( 0.073633 -0.004183 -0.010318)
 48:   4076.08   0.072490  366.34  0.005550  ( 0.006306 -0.041470  0.061565)
 49:   4076.08   0.072405  365.90  0.005543  (-0.009179 -0.061719 -0.040617)
 50:   4088.28   0.000001    0.00  0.000000  (-0.000171 -0.000052 -0.000101)
 51:   4158.29   0.000269    1.36  0.000020  (-0.001513 -0.002536  0.003390)
 52:   4158.29   0.001057    5.34  0.000079  (-0.000594 -0.000028  0.008889)
 53:   4158.40   0.003698   18.69  0.000278  (-0.016611 -0.000301 -0.001220)
 54:   4159.17   0.109801  554.89  0.008238  ( 0.002432 -0.089086  0.017209)
 55:   4159.20   0.109079  551.24  0.008184  ( 0.003756 -0.017535 -0.088671)
 56:   4159.35   0.106469  538.05  0.007988  (-0.089257 -0.003285 -0.003239)

--------------------------
THERMOCHEMISTRY AT 298.15K
--------------------------

Temperature         ... 298.15 K
Pressure            ... 1.00 atm
Total Mass          ... 163.94 AMU

Throughout the following assumptions are being made:
  (1) The electronic state is orbitally nondegenerate
  (2) There are no thermally accessible electronically excited states
  (3) Hindered rotations indicated by low frequency modes are not
      treated as such but are treated as vibrations and this may
      cause some error
  (4) All equations used are the standard statistical mechanics
      equations for an ideal gas
  (5) All vibrations are strictly harmonic

freq.     135.18  E(vib)   ...       0.42
freq.     135.22  E(vib)   ...       0.42
freq.     135.27  E(vib)   ...       0.42
freq.     135.66  E(vib)   ...       0.42
freq.     135.67  E(vib)   ...       0.42
freq.     135.81  E(vib)   ...       0.42
freq.     180.74  E(vib)   ...       0.37
freq.     180.80  E(vib)   ...       0.37
freq.     180.84  E(vib)   ...       0.37
freq.     211.51  E(vib)   ...       0.34
freq.     211.72  E(vib)   ...       0.34
freq.     272.35  E(vib)   ...       0.29
freq.     272.40  E(vib)   ...       0.29
freq.     272.80  E(vib)   ...       0.29
freq.     304.80  E(vib)   ...       0.26
freq.     305.31  E(vib)   ...       0.26
freq.     352.96  E(vib)   ...       0.22
freq.     377.23  E(vib)   ...       0.21
freq.     377.91  E(vib)   ...       0.21
freq.     378.32  E(vib)   ...       0.21
freq.     393.15  E(vib)   ...       0.20
freq.     393.68  E(vib)   ...       0.20
freq.     394.10  E(vib)   ...       0.20
freq.     410.83  E(vib)   ...       0.19
freq.     423.11  E(vib)   ...       0.18
freq.     423.75  E(vib)   ...       0.18
freq.     423.80  E(vib)   ...       0.18
freq.     598.52  E(vib)   ...       0.10
freq.     598.65  E(vib)   ...       0.10
freq.     598.94  E(vib)   ...       0.10
freq.     632.76  E(vib)   ...       0.09
freq.     633.02  E(vib)   ...       0.09
freq.     633.17  E(vib)   ...       0.09
freq.    1764.55  E(vib)   ...       0.00
freq.    1764.75  E(vib)   ...       0.00
freq.    1764.79  E(vib)   ...       0.00
freq.    1766.29  E(vib)   ...       0.00
freq.    1766.38  E(vib)   ...       0.00
freq.    1771.27  E(vib)   ...       0.00
freq.    4074.32  E(vib)   ...       0.00
freq.    4074.34  E(vib)   ...       0.00
freq.    4076.05  E(vib)   ...       0.00
freq.    4076.08  E(vib)   ...       0.00
freq.    4076.08  E(vib)   ...       0.00
freq.    4088.28  E(vib)   ...       0.00
freq.    4158.29  E(vib)   ...       0.00
freq.    4158.29  E(vib)   ...       0.00
freq.    4158.40  E(vib)   ...       0.00
freq.    4159.17  E(vib)   ...       0.00
freq.    4159.20  E(vib)   ...       0.00
freq.    4159.35  E(vib)   ...       0.00

------------
INNER ENERGY
------------

The inner energy is: U= E(el) + E(ZPE) + E(vib) + E(rot) + E(trans)
    E(el)   - is the total energy from the electronic structure calculation
              = E(kin-el) + E(nuc-el) + E(el-el) + E(nuc-nuc)
    E(ZPE)  - the the zero temperature vibrational energy from the frequency calculation
    E(vib)  - the the finite temperature correction to E(ZPE) due to population
              of excited vibrational states
    E(rot)  - is the rotational thermal energy
    E(trans)- is the translational thermal energy

Summary of contributions to the inner energy U:
Electronic energy                ...  -1717.63927214 Eh
Zero point energy                ...      0.16235559 Eh     101.88 kcal/mol
Thermal vibrational correction   ...      0.01344847 Eh       8.44 kcal/mol
Thermal rotational correction    ...      0.00141627 Eh       0.89 kcal/mol
Thermal translational correction ...      0.00141627 Eh       0.89 kcal/mol
-----------------------------------------------------------------------
Total thermal energy                  -1717.46063554 Eh

Summary of corrections to the electronic energy:
(perhaps to be used in another calculation)
Total thermal correction                  0.01628101 Eh      10.22 kcal/mol
Non-thermal (ZPE) correction              0.16235559 Eh     101.88 kcal/mol
-----------------------------------------------------------------------
Total correction                          0.17863660 Eh     112.10 kcal/mol

--------
ENTHALPY
--------

The enthalpy is H = U + kB*T
                kB is Boltzmann's constant
Total free energy                 ...  -1717.46063554 Eh
Thermal Enthalpy correction       ...      0.00094421 Eh       0.59 kcal/mol
-----------------------------------------------------------------------
Total Enthalpy                    ...  -1717.45969133 Eh

Note: Only C1 symmetry has been detected, increase convergence thresholds
      if your molecule has a higher symmetry. Symmetry factor of 1.0 is
      used for the rotational entropy correction.

Note: Rotational entropy computed according to Herzberg
Infrared and Raman Spectra, Chapter V,1, Van Nostrand Reinhold, 1945
Point Group:  C1, Symmetry Number:   1
Rotational constants in cm-1:     0.049753     0.049747     0.049718

Vibrational entropy computed according to the QRRHO of S. Grimme
Chem.Eur.J. 2012 18 9955

-------
ENTROPY
-------

The entropy contributions are T*S = T*(S(el)+S(vib)+S(rot)+S(trans))
     S(el)   - electronic entropy
     S(vib)  - vibrational entropy
     S(rot)  - rotational entropy
     S(trans)- translational entropy
The entropies will be listed as multiplied by the temperature to get
units of energy

Electronic entropy                ...      0.00000000 Eh      0.00 kcal/mol
Vibrational entropy               ...      0.02315777 Eh     14.53 kcal/mol
Rotational entropy                ...      0.01376098 Eh      8.64 kcal/mol
Translational entropy             ...      0.01957135 Eh     12.28 kcal/mol
-----------------------------------------------------------------------
Final entropy term                ...      0.05649010 Eh     35.45 kcal/mol

In case the symmetry of your molecule has not been determined correctly
or in case you have a reason to use a different symmetry number we print
out the resulting rotational entropy values for sn=1,12 :
 --------------------------------------------------------
|  sn= 1 | S(rot)=       0.01376098 Eh      8.64 kcal/mol|
|  sn= 2 | S(rot)=       0.01310653 Eh      8.22 kcal/mol|
|  sn= 3 | S(rot)=       0.01272370 Eh      7.98 kcal/mol|
|  sn= 4 | S(rot)=       0.01245207 Eh      7.81 kcal/mol|
|  sn= 5 | S(rot)=       0.01224138 Eh      7.68 kcal/mol|
|  sn= 6 | S(rot)=       0.01206924 Eh      7.57 kcal/mol|
|  sn= 7 | S(rot)=       0.01192369 Eh      7.48 kcal/mol|
|  sn= 8 | S(rot)=       0.01179762 Eh      7.40 kcal/mol|
|  sn= 9 | S(rot)=       0.01168641 Eh      7.33 kcal/mol|
|  sn=10 | S(rot)=       0.01158693 Eh      7.27 kcal/mol|
|  sn=11 | S(rot)=       0.01149694 Eh      7.21 kcal/mol|
|  sn=12 | S(rot)=       0.01141478 Eh      7.16 kcal/mol|

                             ****ORCA TERMINATED NORMALLY****
TOTAL RUN TIME: 0 days 0 hours 9 minutes 49 seconds 312 msec
