                         Program Version 5.0.0 -  RELEASE  -
|  1> ! RHF MP2 cc-pvtz pal8
|  2> ! NoFrozenCore
|  3>
|  4> %mp2
|  5>     density relaxed
|  6> end
|  7>
|  8> %loc
|  9>     LocMet  PM
| 10> end
| 11>
| 12> *xyz 0 1
| 13>  C                 -1.15681380    1.48653371    0.56686282
| 14>  H                 -2.22291085    1.49025823    0.47563119
| 15>  C                 -0.48444836    2.65507368    0.70472539
| 16>  H                 -1.01967817    3.58142066    0.72234117
| 17>  H                  0.58164847    2.65134899    0.79595962
| 18>  N                 -0.42149782    0.21388900    0.54265870
| 19>  H                 -0.33518276   -0.13898379    1.47434025
| 20>  H                 -0.91811432   -0.44738115   -0.01956354
| 21> *
| 22>
| 23>                          ****END OF INPUT****

CARTESIAN COORDINATES (ANGSTROEM)
---------------------------------
  C     -1.156814    1.486534    0.566863
  H     -2.222911    1.490258    0.475631
  C     -0.484448    2.655074    0.704725
  H     -1.019678    3.581421    0.722341
  H      0.581648    2.651349    0.795960
  N     -0.421498    0.213889    0.542659
  H     -0.335183   -0.138984    1.474340
  H     -0.918114   -0.447381   -0.019564

 Total Charge           Charge          ....    0
 Multiplicity           Mult            ....    1
 Number of Electrons    NEL             ....   24
 Basis Dimension        Dim             ....  160

ORBITAL ENERGIES
----------------

  NO   OCC          E(Eh)            E(eV)
   0   2.0000     -15.547648      -423.0730
   1   2.0000     -11.263099      -306.4845
   2   2.0000     -11.215058      -305.1772
   3   2.0000      -1.182136       -32.1676
   4   2.0000      -0.995223       -27.0814
   5   2.0000      -0.774786       -21.0830
   6   2.0000      -0.672451       -18.2983
   7   2.0000      -0.643867       -17.5205
   8   2.0000      -0.575295       -15.6546
   9   2.0000      -0.532493       -14.4899
  10   2.0000      -0.430881       -11.7249
  11   2.0000      -0.346493        -9.4285
  12   0.0000       0.145576         3.9613
  13   0.0000       0.159575         4.3423
  14   0.0000       0.180441         4.9100
  15   0.0000       0.188133         5.1194
  16   0.0000       0.217458         5.9173

MULLIKEN ATOMIC CHARGES
-----------------------
   0 C :   -0.097195
   1 H :    0.145637
   2 C :   -0.345650
   3 H :    0.155005
   4 H :    0.155897
   5 N :   -0.347834
   6 H :    0.171571
   7 H :    0.162570
Sum of atomic charges:   -0.0000000

LOEWDIN ATOMIC CHARGES
----------------------
   0 C :   -0.038064
   1 H :   -0.061109
   2 C :    0.080470
   3 H :   -0.049824
   4 H :   -0.049085
   5 N :    0.345085
   6 H :   -0.112312
   7 H :   -0.115162

  Mayer bond orders larger than 0.100000
B(  0-C ,  1-H ) :   0.9096 B(  0-C ,  2-C ) :   1.7225 B(  0-C ,  5-N ) :   0.9884
B(  2-C ,  3-H ) :   0.9199 B(  2-C ,  4-H ) :   0.9075 B(  5-N ,  6-H ) :   0.9353
B(  5-N ,  7-H ) :   0.9423

MP2 TOTAL ENERGY:     -133.699714996 Eh
FINAL SINGLE POINT ENERGY      -133.699714996469

DIPOLE MOMENT
-------------
                                X             Y             Z
Electronic contribution:      0.00461      -0.42881      -0.16722
Nuclear contribution   :     -0.45095       0.16116       0.36515
                        -----------------------------------------
Total Dipole Moment    :     -0.44635      -0.26765       0.19794
                        -----------------------------------------
Magnitude (a.u.)       :      0.55681
Magnitude (Debye)      :      1.41530

Rotational constants in cm-1:     1.748126     0.323030     0.282445
Rotational constants in MHz : 52407.492075  9684.207115  8467.484501

                             ****ORCA TERMINATED NORMALLY****
TOTAL RUN TIME: 0 days 0 hours 0 minutes 12 seconds 336 msec
