                         Program Version 5.0.0 -  RELEASE  -
|  1> ! RHF cc-pvtz pal8 UseSym
|  2>
|  3> *xyz 0 1
|  4>  C   -6.64118154871840     -1.62152199820221     -0.00000009697356
|  5>  H   -6.14278421708044     -2.59598105665497     -0.00000014220472
|  6>  H   -7.73333554424968     -1.61977238029341     -0.00000042278070
|  7>  C   -5.93549956067656     -0.47904328673011      0.00000030766916
|  8>  H   -6.46384951769643      0.48219250457623      0.00000027918139
|  9>  C   -4.47901443536966     -0.41544209462766      0.00000033271928
| 10>  H   -3.95066484182954     -1.37667808135024      0.00000039582290
| 11>  C   -3.77333222954333      0.72703646535930     -0.00000006376917
| 12>  H   -4.27172926240940      1.70149564387711     -0.00000005020219
| 13>  H   -2.68117824242655      0.72528655404596     -0.00000053946240
| 14> *
| 15>
| 16>
| 17>                          ****END OF INPUT****

CARTESIAN COORDINATES (ANGSTROEM)
---------------------------------
  C     -1.433925   -1.174279   -0.000000
  H     -0.935527   -2.148738   -0.000000
  H     -2.526079   -1.172529    0.000000
  C     -0.728243   -0.031801    0.000000
  H     -1.256592    0.929435    0.000000
  C      0.728243    0.031801    0.000000
  H      1.256592   -0.929435    0.000000
  C      1.433925    1.174279   -0.000000
  H      0.935527    2.148738   -0.000000
  H      2.526079    1.172529    0.000000

 Total Charge           Charge          ....    0
 Multiplicity           Mult            ....    1
 Number of Electrons    NEL             ....   30
 Basis Dimension        Dim             ....  204

ORBITAL ENERGIES
----------------

  NO   OCC          E(Eh)            E(eV)    Irrep
   0   2.0000     -11.241650      -305.9008    1-Ag
   1   2.0000     -11.240821      -305.8783    1-Bu
   2   2.0000     -11.231939      -305.6366    2-Ag
   3   2.0000     -11.231933      -305.6364    2-Bu
   4   2.0000      -1.089071       -29.6351    3-Ag
   5   2.0000      -0.997058       -27.1313    3-Bu
   6   2.0000      -0.824537       -22.4368    4-Ag
   7   2.0000      -0.750323       -20.4173    4-Bu
   8   2.0000      -0.641491       -17.4558    5-Bu
   9   2.0000      -0.631529       -17.1848    5-Ag
  10   2.0000      -0.556100       -15.1323    6-Ag
  11   2.0000      -0.541425       -14.7329    6-Bu
  12   2.0000      -0.492004       -13.3881    7-Ag
  13   2.0000      -0.443096       -12.0573    1-Au
  14   2.0000      -0.322787        -8.7835    1-Bg
  15   0.0000       0.109389         2.9766    2-Au
  16   0.0000       0.158548         4.3143    8-Ag
  17   0.0000       0.162928         4.4335    7-Bu
  18   0.0000       0.170432         4.6377    8-Bu
  19   0.0000       0.213431         5.8077    2-Bg

MULLIKEN ATOMIC CHARGES
-----------------------
   0 C :   -0.332108
   1 H :    0.131644
   2 H :    0.138777
   3 C :   -0.083485
   4 H :    0.145172
   5 C :   -0.083485
   6 H :    0.145172
   7 C :   -0.332108
   8 H :    0.131644
   9 H :    0.138777
Sum of atomic charges:    0.0000000

LOEWDIN ATOMIC CHARGES
----------------------
   0 C :    0.088728
   1 H :   -0.037417
   2 H :   -0.036871
   3 C :    0.003445
   4 H :   -0.017885
   5 C :    0.003445
   6 H :   -0.017885
   7 C :    0.088728
   8 H :   -0.037417
   9 H :   -0.036871

  Mayer bond orders larger than 0.100000
B(  0-C ,  1-H ) :   0.9702 B(  0-C ,  2-H ) :   0.9786 B(  0-C ,  3-C ) :   1.8174
B(  3-C ,  4-H ) :   0.9588 B(  3-C ,  5-C ) :   1.0163 B(  5-C ,  6-H ) :   0.9588
B(  5-C ,  7-C ) :   1.8174 B(  7-C ,  8-H ) :   0.9702 B(  7-C ,  9-H ) :   0.9786

FINAL SINGLE POINT ENERGY      -154.975812871554

DIPOLE MOMENT
-------------
                                X             Y             Z
Electronic contribution:      0.00000       0.00000       0.00000
Nuclear contribution   :      0.00000       0.00000      -0.00000
                        -----------------------------------------
Total Dipole Moment    :      0.00000       0.00000       0.00000
                        -----------------------------------------
Magnitude (a.u.)       :      0.00000
Magnitude (Debye)      :      0.00000

Rotational constants in cm-1:     1.397081     0.146782     0.132827
Rotational constants in MHz : 41883.422262  4400.413202  3982.046052

                             ****ORCA TERMINATED NORMALLY****
TOTAL RUN TIME: 0 days 0 hours 0 minutes 8 seconds 919 msec
