                         Program Version 5.0.0 -  RELEASE  -
|  1> ! cc-pvtz pal8 UseSym
|  2> ! MOread
|  3>
|  4> %moinp "trans-1,3-bivinyl-rhf.gbw"
|  5>
|  6> %scf
|  7>     rotate {16,19,90}  end
|  8> end
|  9>
| 10> %casscf
| 11>     nel     4
| 12>     norb    4
| 13>     irrep   0
| 14>     mult    1
| 15>     nroots  1
| 16> end
| 17>
| 18> *xyz 0 1
| 19>  C   -6.64118154871840     -1.62152199820221     -0.00000009697356
| 20>  H   -6.14278421708044     -2.59598105665497     -0.00000014220472
| 21>  H   -7.73333554424968     -1.61977238029341     -0.00000042278070
| 22>  C   -5.93549956067656     -0.47904328673011      0.00000030766916
| 23>  H   -6.46384951769643      0.48219250457623      0.00000027918139
| 24>  C   -4.47901443536966     -0.41544209462766      0.00000033271928
| 25>  H   -3.95066484182954     -1.37667808135024      0.00000039582290
| 26>  C   -3.77333222954333      0.72703646535930     -0.00000006376917
| 27>  H   -4.27172926240940      1.70149564387711     -0.00000005020219
| 28>  H   -2.68117824242655      0.72528655404596     -0.00000053946240
| 29> *
| 30>
| 31>
| 32>                          ****END OF INPUT****

CARTESIAN COORDINATES (ANGSTROEM)
---------------------------------
  C     -1.433925   -1.174279   -0.000000
  H     -0.935527   -2.148738   -0.000000
  H     -2.526079   -1.172529    0.000000
  C     -0.728243   -0.031801    0.000000
  H     -1.256592    0.929435    0.000000
  C      0.728243    0.031801    0.000000
  H      1.256592   -0.929435    0.000000
  C      1.433925    1.174279   -0.000000
  H      0.935527    2.148738   -0.000000
  H      2.526079    1.172529    0.000000

 Total Charge           Charge          ....    0
 Multiplicity           Mult            ....    1
 Number of Electrons    NEL             ....   30
 Basis Dimension        Dim             ....  204

ORBITAL ENERGIES
----------------

  NO   OCC          E(Eh)            E(eV)    Irrep
   0   2.0000     -11.228175      -305.5342    1-Ag
   1   2.0000     -11.227352      -305.5118    1-Bu
   2   2.0000     -11.219736      -305.3045    2-Ag
   3   2.0000     -11.219726      -305.3043    2-Bu
   4   2.0000      -1.082598       -29.4590    3-Ag
   5   2.0000      -0.991466       -26.9792    3-Bu
   6   2.0000      -0.818676       -22.2773    4-Ag
   7   2.0000      -0.745036       -20.2734    4-Bu
   8   2.0000      -0.635886       -17.3033    5-Bu
   9   2.0000      -0.626108       -17.0373    5-Ag
  10   2.0000      -0.550105       -14.9691    6-Ag
  11   2.0000      -0.536344       -14.5947    6-Bu
  12   2.0000      -0.486374       -13.2349    7-Ag
  13   0.1177       0.148328         4.0362    1-Au
  14   0.0605       0.328479         8.9384    1-Bg
  15   1.9347      -0.429217       -11.6796    2-Au
  16   1.8872      -0.306320        -8.3354    2-Bg
  17   0.0000       0.160189         4.3590    8-Ag
  18   0.0000       0.164539         4.4773    7-Bu
  19   0.0000       0.171858         4.6765    8-Bu
  20   0.0000       0.215296         5.8585    9-Ag
  21   0.0000       0.225302         6.1308   10-Ag

MULLIKEN ATOMIC CHARGES
-----------------------
   0 C :   -0.315331
   1 H :    0.125409
   2 H :    0.131922
   3 C :   -0.080420
   4 H :    0.138421
   5 C :   -0.080420
   6 H :    0.138421
   7 C :   -0.315331
   8 H :    0.125409
   9 H :    0.131922
Sum of atomic charges:   -0.0000000

LOEWDIN ATOMIC CHARGES
----------------------
   0 C :    0.096971
   1 H :   -0.040077
   2 H :   -0.039823
   3 C :    0.004907
   4 H :   -0.021977
   5 C :    0.004907
   6 H :   -0.021977
   7 C :    0.096971
   8 H :   -0.040077
   9 H :   -0.039823

  Mayer bond orders larger than 0.100000
B(  0-C ,  1-H ) :   0.9734 B(  0-C ,  2-H ) :   0.9822 B(  0-C ,  3-C ) :   1.6730
B(  3-C ,  4-H ) :   0.9615 B(  3-C ,  5-C ) :   1.0155 B(  5-C ,  6-H ) :   0.9615
B(  5-C ,  7-C ) :   1.6730 B(  7-C ,  8-H ) :   0.9734 B(  7-C ,  9-H ) :   0.9822

FINAL SINGLE POINT ENERGY      -155.030110893711

DIPOLE MOMENT
-------------
                                X             Y             Z
Electronic contribution:      0.00000       0.00000       0.00000
Nuclear contribution   :      0.00000       0.00000      -0.00000
                        -----------------------------------------
Total Dipole Moment    :      0.00000       0.00000       0.00000
                        -----------------------------------------
Magnitude (a.u.)       :      0.00000
Magnitude (Debye)      :      0.00000

Rotational constants in cm-1:     1.397081     0.146782     0.132827
Rotational constants in MHz : 41883.422262  4400.413202  3982.046052

                             ****ORCA TERMINATED NORMALLY****
TOTAL RUN TIME: 0 days 0 hours 0 minutes 29 seconds 850 msec
