                         Program Version 5.0.0 -  RELEASE  -
|  1> ! RKS B3LYP/G def2-SVP NoRI miniprint pal8
|  2>
|  3> %TDDFT
|  4>     NRoots      18
|  5>     TDA         True
|  6>     Printlevel  3
|  7> end
|  8>
|  9> *xyz 0 1
| 10>  C    0.275339664905    -0.458399102833    2.743143403700
| 11>  C    1.279006847437    0.228940885018    2.053971964849
| 12>  C    0.939622874510    1.231612429254    1.139882080053
| 13>  C    -0.402424351875    1.548739845978    0.916642984919
| 14>  C    -1.406698760230    0.863818487970    1.607817662361
| 15>  C    -1.068977646094    -0.140122820687    2.520286918876
| 16>  H    0.539603706561    -1.241898862747    3.454437267994
| 17>  H    2.326588004763    -0.022157300550    2.223964486000
| 18>  H    1.720832792185    1.755051800886    0.589301977320
| 19>  H    -0.666403863041    2.316697890287    0.190217604195
| 20>  H    -2.454419062639    1.106539982179    1.427829033755
| 21>  H    -1.852402130973    -0.676071740128    3.057547529767
| 22>  C    0.408637071405    -1.547138908805    -0.917226197790
| 23>  C    1.408439887136    -0.859383018412    -1.612070091004
| 24>  C    1.064503595865    0.142964356786    -2.523961075999
| 25>  C    -0.281557623713    0.456819421173    -2.742536095802
| 26>  C    -1.280735610329    -0.233330090254    -2.049663508775
| 27>  C    -0.935147882928    -1.234436127477    -1.136182768651
| 28>  H    0.677439446996    -2.313917010173    -0.191321675612
| 29>  H    2.457518043610    -1.098728344182    -1.435489418777
| 30>  H    1.844432727521    0.681106942624    -3.064104221734
| 31>  H    -0.550678756658    1.239051458125    -3.453403954344
| 32>  H    -2.329668169039    0.014352845763    -2.216299435382
| 33>  H    -1.712850805428    -1.760113019904    -0.582784469921
| 34> *
| 35>
| 36>                          ****END OF INPUT****

CARTESIAN COORDINATES (ANGSTROEM)
---------------------------------
  C      0.275340   -0.458399    2.743143
  C      1.279007    0.228941    2.053972
  C      0.939623    1.231612    1.139882
  C     -0.402424    1.548740    0.916643
  C     -1.406699    0.863818    1.607818
  C     -1.068978   -0.140123    2.520287
  H      0.539604   -1.241899    3.454437
  H      2.326588   -0.022157    2.223964
  H      1.720833    1.755052    0.589302
  H     -0.666404    2.316698    0.190218
  H     -2.454419    1.106540    1.427829
  H     -1.852402   -0.676072    3.057548
  C      0.408637   -1.547139   -0.917226
  C      1.408440   -0.859383   -1.612070
  C      1.064504    0.142964   -2.523961
  C     -0.281558    0.456819   -2.742536
  C     -1.280736   -0.233330   -2.049664
  C     -0.935148   -1.234436   -1.136183
  H      0.677439   -2.313917   -0.191322
  H      2.457518   -1.098728   -1.435489
  H      1.844433    0.681107   -3.064104
  H     -0.550679    1.239051   -3.453404
  H     -2.329668    0.014353   -2.216299
  H     -1.712851   -1.760113   -0.582784

ORBITAL ENERGIES
----------------

  NO   OCC          E(Eh)            E(eV)
   0   2.0000     -10.187876      -277.2262
   1   2.0000     -10.187861      -277.2258
   2   2.0000     -10.187514      -277.2163
   3   2.0000     -10.187503      -277.2161
   4   2.0000     -10.187114      -277.2055
   5   2.0000     -10.187102      -277.2051
   6   2.0000     -10.186972      -277.2016
   7   2.0000     -10.186965      -277.2014
   8   2.0000     -10.186054      -277.1766
   9   2.0000     -10.185990      -277.1749
  10   2.0000     -10.185493      -277.1613
  11   2.0000     -10.185486      -277.1612
  12   2.0000      -0.842912       -22.9368
  13   2.0000      -0.839623       -22.8473
  14   2.0000      -0.734908       -19.9979
  15   2.0000      -0.733399       -19.9568
  16   2.0000      -0.733257       -19.9529
  17   2.0000      -0.732115       -19.9219
  18   2.0000      -0.593460       -16.1489
  19   2.0000      -0.593251       -16.1432
  20   2.0000      -0.593220       -16.1423
  21   2.0000      -0.592959       -16.1352
  22   2.0000      -0.518737       -14.1155
  23   2.0000      -0.517573       -14.0839
  24   2.0000      -0.453737       -12.3468
  25   2.0000      -0.453513       -12.3407
  26   2.0000      -0.444497       -12.0954
  27   2.0000      -0.444126       -12.0853
  28   2.0000      -0.419225       -11.4077
  29   2.0000      -0.418483       -11.3875
  30   2.0000      -0.418350       -11.3839
  31   2.0000      -0.417867       -11.3707
  32   2.0000      -0.375912       -10.2291
  33   2.0000      -0.352422        -9.5899
  34   2.0000      -0.342740        -9.3264
  35   2.0000      -0.342702        -9.3254
  36   2.0000      -0.342564        -9.3216
  37   2.0000      -0.342458        -9.3188
  38   2.0000      -0.261489        -7.1155
  39   2.0000      -0.250876        -6.8267
  40   2.0000      -0.250862        -6.8263
  41   2.0000      -0.242202        -6.5906
  42   0.0000      -0.006795        -0.1849
  43   0.0000      -0.005242        -0.1426
  44   0.0000      -0.004645        -0.1264
  45   0.0000      -0.003449        -0.0939
  46   0.0000       0.051238         1.3942

Total SCF time: 0 days 0 hours 0 min 11 sec

-----------------------------------------------------------------------------
         ABSORPTION SPECTRUM VIA TRANSITION ELECTRIC DIPOLE MOMENTS
-----------------------------------------------------------------------------
State   Energy    Wavelength  fosc         T2        TX        TY        TZ
        (cm-1)      (nm)                 (au**2)    (au)      (au)      (au)
-----------------------------------------------------------------------------
   1   43714.7    228.8   0.000000010   0.00000   0.00023   0.00007   0.00013
   2   43862.7    228.0   0.003015032   0.02263   0.01736  -0.02643  -0.14707
   3   47835.4    209.1   0.000002993   0.00002  -0.00101   0.00038  -0.00441
   4   47949.7    208.6   0.009483069   0.06511   0.17370  -0.02144   0.18569
   5   48145.7    207.7   0.000003009   0.00002  -0.00117   0.00427   0.00097
   6   48195.7    207.5   0.002377241   0.01624   0.00925  -0.12378  -0.02882
   7   48224.1    207.4   0.000006545   0.00004  -0.00183   0.00638  -0.00076
   8   48325.8    206.9   0.000679044   0.00463  -0.03214   0.02265  -0.05550
   9   48854.8    204.7   0.000006682   0.00005   0.00233  -0.00117  -0.00618
  10   49136.4    203.5   0.071629891   0.47992  -0.07720   0.09189   0.68229
  11   52448.9    190.7   0.002959782   0.01858   0.01457   0.00742   0.13532
  12   52479.9    190.5   0.000000020   0.00000   0.00004  -0.00030  -0.00019
  13   57388.0    174.3   0.000000004   0.00000   0.00006  -0.00013  -0.00005
  14   59135.7    169.1   0.002497306   0.01390  -0.01500  -0.00455   0.11686
  15   59146.2    169.1   0.000007552   0.00004   0.00065  -0.00011  -0.00645
  16   60410.7    165.5   0.000045725   0.00025   0.01316  -0.00495   0.00717
  17   60476.0    165.4   0.000000016   0.00000   0.00021   0.00019   0.00008
  18   61606.4    162.3   0.000000678   0.00000  -0.00012  -0.00005  -0.00190

FINAL SINGLE POINT ENERGY      -463.966765509962

DIPOLE MOMENT
-------------
                                X             Y             Z
Electronic contribution:      0.00003       0.00021       0.00029
Nuclear contribution   :     -0.00001      -0.00015      -0.00018
                        -----------------------------------------
Total Dipole Moment    :      0.00001       0.00006       0.00011
                        -----------------------------------------
Magnitude (a.u.)       :      0.00013
Magnitude (Debye)      :      0.00032

Rotational constants in cm-1:     0.054384     0.022519     0.021201
Rotational constants in MHz :  1630.400814   675.100582   635.582701

                             ****ORCA TERMINATED NORMALLY****
TOTAL RUN TIME: 0 days 0 hours 1 minutes 39 seconds 821 msec
