                         Program Version 5.0.0 -  RELEASE  -
|  1> ! RKS B3LYP/G def2-SVP NoRI miniprint pal8
|  2>
|  3> %TDDFT
|  4>     NRoots      18
|  5>     TDA         false
|  6>     printlevel  3
|  7> end
|  8>
|  9> # benzeneDimer TDDFT
| 10>
| 11> *xyz 0 1
| 12>  C    0.275339664905    -0.458399102833    2.743143403700
| 13>  C    1.279006847437    0.228940885018    2.053971964849
| 14>  C    0.939622874510    1.231612429254    1.139882080053
| 15>  C    -0.402424351875    1.548739845978    0.916642984919
| 16>  C    -1.406698760230    0.863818487970    1.607817662361
| 17>  C    -1.068977646094    -0.140122820687    2.520286918876
| 18>  H    0.539603706561    -1.241898862747    3.454437267994
| 19>  H    2.326588004763    -0.022157300550    2.223964486000
| 20>  H    1.720832792185    1.755051800886    0.589301977320
| 21>  H    -0.666403863041    2.316697890287    0.190217604195
| 22>  H    -2.454419062639    1.106539982179    1.427829033755
| 23>  H    -1.852402130973    -0.676071740128    3.057547529767
| 24>  C    0.408637071405    -1.547138908805    -0.917226197790
| 25>  C    1.408439887136    -0.859383018412    -1.612070091004
| 26>  C    1.064503595865    0.142964356786    -2.523961075999
| 27>  C    -0.281557623713    0.456819421173    -2.742536095802
| 28>  C    -1.280735610329    -0.233330090254    -2.049663508775
| 29>  C    -0.935147882928    -1.234436127477    -1.136182768651
| 30>  H    0.677439446996    -2.313917010173    -0.191321675612
| 31>  H    2.457518043610    -1.098728344182    -1.435489418777
| 32>  H    1.844432727521    0.681106942624    -3.064104221734
| 33>  H    -0.550678756658    1.239051458125    -3.453403954344
| 34>  H    -2.329668169039    0.014352845763    -2.216299435382
| 35>  H    -1.712850805428    -1.760113019904    -0.582784469921
| 36> *
| 37>
| 38>                          ****END OF INPUT****

CARTESIAN COORDINATES (ANGSTROEM)
---------------------------------
  C      0.275340   -0.458399    2.743143
  C      1.279007    0.228941    2.053972
  C      0.939623    1.231612    1.139882
  C     -0.402424    1.548740    0.916643
  C     -1.406699    0.863818    1.607818
  C     -1.068978   -0.140123    2.520287
  H      0.539604   -1.241899    3.454437
  H      2.326588   -0.022157    2.223964
  H      1.720833    1.755052    0.589302
  H     -0.666404    2.316698    0.190218
  H     -2.454419    1.106540    1.427829
  H     -1.852402   -0.676072    3.057548
  C      0.408637   -1.547139   -0.917226
  C      1.408440   -0.859383   -1.612070
  C      1.064504    0.142964   -2.523961
  C     -0.281558    0.456819   -2.742536
  C     -1.280736   -0.233330   -2.049664
  C     -0.935148   -1.234436   -1.136183
  H      0.677439   -2.313917   -0.191322
  H      2.457518   -1.098728   -1.435489
  H      1.844433    0.681107   -3.064104
  H     -0.550679    1.239051   -3.453404
  H     -2.329668    0.014353   -2.216299
  H     -1.712851   -1.760113   -0.582784

ORBITAL ENERGIES
----------------

  NO   OCC          E(Eh)            E(eV)
   0   2.0000     -10.187876      -277.2262
   1   2.0000     -10.187861      -277.2258
   2   2.0000     -10.187514      -277.2163
   3   2.0000     -10.187503      -277.2161
   4   2.0000     -10.187114      -277.2055
   5   2.0000     -10.187102      -277.2051
   6   2.0000     -10.186972      -277.2016
   7   2.0000     -10.186965      -277.2014
   8   2.0000     -10.186054      -277.1766
   9   2.0000     -10.185990      -277.1749
  10   2.0000     -10.185493      -277.1613
  11   2.0000     -10.185486      -277.1612
  12   2.0000      -0.842912       -22.9368
  13   2.0000      -0.839623       -22.8473
  14   2.0000      -0.734908       -19.9979
  15   2.0000      -0.733399       -19.9568
  16   2.0000      -0.733257       -19.9529
  17   2.0000      -0.732115       -19.9219
  18   2.0000      -0.593460       -16.1489
  19   2.0000      -0.593251       -16.1432
  20   2.0000      -0.593220       -16.1423
  21   2.0000      -0.592959       -16.1352
  22   2.0000      -0.518737       -14.1155
  23   2.0000      -0.517573       -14.0839
  24   2.0000      -0.453737       -12.3468
  25   2.0000      -0.453513       -12.3407
  26   2.0000      -0.444497       -12.0954
  27   2.0000      -0.444126       -12.0853
  28   2.0000      -0.419225       -11.4077
  29   2.0000      -0.418483       -11.3875
  30   2.0000      -0.418350       -11.3839
  31   2.0000      -0.417867       -11.3707
  32   2.0000      -0.375912       -10.2291
  33   2.0000      -0.352422        -9.5899
  34   2.0000      -0.342740        -9.3264
  35   2.0000      -0.342702        -9.3254
  36   2.0000      -0.342564        -9.3216
  37   2.0000      -0.342458        -9.3188
  38   2.0000      -0.261489        -7.1155
  39   2.0000      -0.250876        -6.8267
  40   2.0000      -0.250862        -6.8263
  41   2.0000      -0.242202        -6.5906
  42   0.0000      -0.006795        -0.1849
  43   0.0000      -0.005242        -0.1426
  44   0.0000      -0.004645        -0.1264
  45   0.0000      -0.003449        -0.0939
  46   0.0000       0.051238         1.3942

Total SCF time: 0 days 0 hours 0 min 11 sec

-----------------------------------------------------------------------------
         ABSORPTION SPECTRUM VIA TRANSITION ELECTRIC DIPOLE MOMENTS
-----------------------------------------------------------------------------
State   Energy    Wavelength  fosc         T2        TX        TY        TZ
        (cm-1)      (nm)                 (au**2)    (au)      (au)      (au)
-----------------------------------------------------------------------------
   1   43527.9    229.7   0.000000010   0.00000   0.00024   0.00007   0.00011
   2   43669.1    229.0   0.002687161   0.02026   0.01684  -0.02186  -0.13963
   3   47403.9    211.0   0.000002216   0.00002  -0.00048   0.00034  -0.00388
   4   47562.6    210.2   0.011917453   0.08249  -0.18982   0.03383  -0.21287
   5   48119.0    207.8   0.000005711   0.00004  -0.00100   0.00616  -0.00030
   6   48157.3    207.7   0.002764755   0.01890   0.00920  -0.13674   0.01083
   7   48216.4    207.4   0.000003444   0.00002   0.00162  -0.00340   0.00305
   8   48290.0    207.1   0.000635518   0.00433   0.02608  -0.01744   0.05787
   9   48704.1    205.3   0.000004740   0.00003   0.00308  -0.00079  -0.00469
  10   49003.1    204.1   0.068298670   0.45884  -0.11998   0.04879   0.66488
  11   50781.4    196.9   0.009811528   0.06361   0.07365  -0.01803   0.24054
  12   50801.7    196.8   0.000000276   0.00000   0.00111  -0.00044   0.00060
  13   56291.9    177.6   0.000000004   0.00000  -0.00001  -0.00013  -0.00010
  14   57306.1    174.5   0.000000267   0.00000  -0.00030  -0.00110  -0.00048
  15   57597.2    173.6   0.000000026   0.00000  -0.00026   0.00022  -0.00017
  16   59038.9    169.4   0.204097007   1.13808   0.21478   0.69144  -0.78349
  17   59161.0    169.0   0.000007040   0.00004  -0.00077  -0.00402   0.00473
  18   59409.9    168.3   0.785151442   4.35081  -0.38561  -1.47295   1.42567

FINAL SINGLE POINT ENERGY      -463.967616202946

DIPOLE MOMENT
-------------
                                X             Y             Z
Electronic contribution:      0.00003       0.00021       0.00029
Nuclear contribution   :     -0.00001      -0.00015      -0.00018
                        -----------------------------------------
Total Dipole Moment    :      0.00001       0.00006       0.00011
                        -----------------------------------------
Magnitude (a.u.)       :      0.00013
Magnitude (Debye)      :      0.00032

Rotational constants in cm-1:     0.054384     0.022519     0.021201
Rotational constants in MHz :  1630.400814   675.100582   635.582701

                             ****ORCA TERMINATED NORMALLY****
TOTAL RUN TIME: 0 days 0 hours 7 minutes 24 seconds 272 msec
