                         Program Version 5.0.0 -  RELEASE  -
|  1> ! UKS BP86 def2-TZVP Slowconv NoRI VeryTightSCF
|  2> ! MOread
|  3>
|  4> %pal
|  5>     nprocs      16
|  6> end
|  7>
|  8> %moinp      "RC-highspin.gbw"
|  9>
| 10> %scf
| 11>     MaxIter         500
| 12>     FlipSpin        45
| 13>     FinalMs         0.5
| 14> end
| 15>
| 16> * xyz +1 12
| 17>  C		41.75403		53.28594		36.47089
| 18>  N		42.78753		53.11575		35.57581
| 19>  H		43.16994		53.82901		34.93449
| 20>  C		43.13114		51.81325		35.56784
| 21>  H		43.90950		51.37773		34.94414
| 22>  N		42.37607		51.13571		36.42691
| 23>  C		41.50665		52.03904		37.00144
| 24>  H		40.82544		51.73164		37.79505
| 25>  C		40.09202		47.27196		33.79593
| 26>  N		40.01563		48.58847		33.38565
| 27>  H		39.43866		49.00474		32.64677
| 28>  C		40.81932		49.32188		34.18498
| 29>  H		40.95055		50.39694		34.07925
| 30>  N		41.40562		48.54888		35.08628
| 31>  C		40.96397		47.26826		34.85989
| 32>  H		41.28483		46.44894		35.49587
| 33>  C		38.24865		48.45183		37.81335
| 34>  H		38.06635		49.38048		37.25970
| 35>  H		37.98920		48.64643		38.86583
| 36>  C		39.73354		48.12878		37.79602
| 37>  O		40.09424		46.93213		38.07281
| 38>  O		40.52803		49.07737		37.61504
| 39>  C		38.64939		43.85153		40.73232
| 40>  N		39.75318		43.46223		41.46909
| 41>  H		39.79405		42.88321		42.31374
| 42>  C		40.85619		43.95040		40.87085
| 43>  H		41.86208		43.73437		41.21668
| 44>  N		40.53337		44.65182		39.79100
| 45>  C		39.15956		44.58428		39.68656
| 46>  H		38.64310		45.07085		38.86947
| 47>  C		42.78301		43.20389		35.50791
| 48>  N		41.70402		42.56435		36.07633
| 49>  H		41.38662		41.60923		35.87328
| 50>  C		41.22751		43.34662		37.06020
| 51>  H		40.41347		43.06024		37.71905
| 52>  N		41.93585		44.46949		37.14463
| 53>  C		42.92016		44.39135		36.18173
| 54>  H		43.65411		45.17925		36.03284
| 55>  C		45.76587		48.09327		34.01347
| 56>  H		45.12996		47.64758		33.22625
| 57>  H		46.66030		47.46138		34.10695
| 58>  C		44.95577		48.01686		35.29973
| 59>  O		44.14613		48.94934		35.56215
| 60>  O		45.08740		46.97457		36.01411
| 61>  Fe		42.54033		49.05049		36.87039
| 62>  Fe		41.81627		46.03465		38.62397
| 63>  O		42.83867		47.18229		37.39246
| 64>  H		43.73492		46.94286		37.02348
| 65>  C		43.49167		47.06037		40.65787
| 66>  C		43.62987		47.67506		42.05581
| 67>  C		45.10300		47.59033		42.50474
| 68>  C		45.62301		46.15243		42.46240
| 69>  C		45.40189		45.47910		41.08480
| 70>  C		43.92995		45.59891		40.70191
| 71>  O		42.19103		47.12374		40.15874
| 72>  O		42.77905		47.01209		42.97498
| 73>  O		45.28716		48.11554		43.80319
| 74>  O		46.99767		46.17794		42.81101
| 75>  O		45.74511		44.11656		41.09014
| 76>  O		43.60430		45.05282		39.42323
| 77>  H		44.17197		47.60667		39.96927
| 78>  H		43.37341		48.74685		41.99147
| 79>  H		45.70505		48.16527		41.77049
| 80>  H		45.03923		45.57203		43.19495
| 81>  H		46.01899		46.03720		40.34589
| 82>  H		43.33990		45.09204		41.48188
| 83>  H		42.10859		47.68790		43.28977
| 84>  H		45.23130		49.11516		43.72228
| 85>  H		47.38229		45.25422		42.73309
| 86>  H		46.61333		43.98248		41.55557
| 87>  H		43.51869		44.03919		39.45235
| 88>  O		42.87964		49.71258		38.89705
| 89>  O		44.05578		49.61518		38.40447
| 90>  H		41.30382		54.25088		36.70388
| 91>  H		39.55092		46.42585		33.37239
| 92>  H		37.60102		47.66437		37.42791
| 93>  H		37.60539		43.64548		40.96829
| 94>  H		43.42804		42.77098		34.74333
| 95>  H		46.04434		49.08634		33.66087
| 96> *
| 97>
| 98>
| 99>
|100>                          ****END OF INPUT****

CARTESIAN COORDINATES (ANGSTROEM)
---------------------------------
  C     41.754030   53.285940   36.470890
  N     42.787530   53.115750   35.575810
  H     43.169940   53.829010   34.934490
  C     43.131140   51.813250   35.567840
  H     43.909500   51.377730   34.944140
  N     42.376070   51.135710   36.426910
  C     41.506650   52.039040   37.001440
  H     40.825440   51.731640   37.795050
  C     40.092020   47.271960   33.795930
  N     40.015630   48.588470   33.385650
  H     39.438660   49.004740   32.646770
  C     40.819320   49.321880   34.184980
  H     40.950550   50.396940   34.079250
  N     41.405620   48.548880   35.086280
  C     40.963970   47.268260   34.859890
  H     41.284830   46.448940   35.495870
  C     38.248650   48.451830   37.813350
  H     38.066350   49.380480   37.259700
  H     37.989200   48.646430   38.865830
  C     39.733540   48.128780   37.796020
  O     40.094240   46.932130   38.072810
  O     40.528030   49.077370   37.615040
  C     38.649390   43.851530   40.732320
  N     39.753180   43.462230   41.469090
  H     39.794050   42.883210   42.313740
  C     40.856190   43.950400   40.870850
  H     41.862080   43.734370   41.216680
  N     40.533370   44.651820   39.791000
  C     39.159560   44.584280   39.686560
  H     38.643100   45.070850   38.869470
  C     42.783010   43.203890   35.507910
  N     41.704020   42.564350   36.076330
  H     41.386620   41.609230   35.873280
  C     41.227510   43.346620   37.060200
  H     40.413470   43.060240   37.719050
  N     41.935850   44.469490   37.144630
  C     42.920160   44.391350   36.181730
  H     43.654110   45.179250   36.032840
  C     45.765870   48.093270   34.013470
  H     45.129960   47.647580   33.226250
  H     46.660300   47.461380   34.106950
  C     44.955770   48.016860   35.299730
  O     44.146130   48.949340   35.562150
  O     45.087400   46.974570   36.014110
  Fe    42.540330   49.050490   36.870390
  Fe    41.816270   46.034650   38.623970
  O     42.838670   47.182290   37.392460
  H     43.734920   46.942860   37.023480
  C     43.491670   47.060370   40.657870
  C     43.629870   47.675060   42.055810
  C     45.103000   47.590330   42.504740
  C     45.623010   46.152430   42.462400
  C     45.401890   45.479100   41.084800
  C     43.929950   45.598910   40.701910
  O     42.191030   47.123740   40.158740
  O     42.779050   47.012090   42.974980
  O     45.287160   48.115540   43.803190
  O     46.997670   46.177940   42.811010
  O     45.745110   44.116560   41.090140
  O     43.604300   45.052820   39.423230
  H     44.171970   47.606670   39.969270
  H     43.373410   48.746850   41.991470
  H     45.705050   48.165270   41.770490
  H     45.039230   45.572030   43.194950
  H     46.018990   46.037200   40.345890
  H     43.339900   45.092040   41.481880
  H     42.108590   47.687900   43.289770
  H     45.231300   49.115160   43.722280
  H     47.382290   45.254220   42.733090
  H     46.613330   43.982480   41.555570
  H     43.518690   44.039190   39.452350
  O     42.879640   49.712580   38.897050
  O     44.055780   49.615180   38.404470
  H     41.303820   54.250880   36.703880
  H     39.550920   46.425850   33.372390
  H     37.601020   47.664370   37.427910
  H     37.605390   43.645480   40.968290
  H     43.428040   42.770980   34.743330
  H     46.044340   49.086340   33.660870

 Total Charge           Charge          ....    1
 Multiplicity           Mult            ....   12
 Number of Electrons    NEL             ....  377
 Basis Dimension        Dim             .... 1627

ORBITAL ENERGIES
----------------
                 SPIN UP ORBITALS
  NO   OCC          E(Eh)            E(eV)
   0   1.0000    -254.931426     -6937.0368
   1   1.0000    -254.914372     -6936.5727
   2   1.0000     -29.688912      -807.8764
   3   1.0000     -29.635564      -806.4247
   4   1.0000     -25.628501      -697.3870
   5   1.0000     -25.617862      -697.0975
   6   1.0000     -25.616125      -697.0502
   7   1.0000     -25.587262      -696.2648
   8   1.0000     -25.584736      -696.1961
   9   1.0000     -25.583731      -696.1687
  10   1.0000     -18.912509      -514.6355
  11   1.0000     -18.910719      -514.5868
  12   1.0000     -18.898136      -514.2444
  13   1.0000     -18.858153      -513.1564
  14   1.0000     -18.842812      -512.7390
  15   1.0000     -18.838172      -512.6127
  16   1.0000     -18.834922      -512.5243
  17   1.0000     -18.830325      -512.3992
  18   1.0000     -18.829716      -512.3826
  19   1.0000     -18.822250      -512.1795
  20   1.0000     -18.813368      -511.9378
  21   1.0000     -18.810024      -511.8468
  22   1.0000     -18.790971      -511.3283
  23   1.0000     -14.174553      -385.7092
  24   1.0000     -14.173523      -385.6812
  25   1.0000     -14.163082      -385.3971
  26   1.0000     -14.161301      -385.3486
  27   1.0000     -14.116615      -384.1326
  28   1.0000     -14.113992      -384.0613
  29   1.0000     -14.105426      -383.8282
  30   1.0000     -14.099726      -383.6731
  31   1.0000     -10.085451      -274.4391
  32   1.0000     -10.065258      -273.8896
  33   1.0000     -10.064900      -273.8798
  34   1.0000     -10.056048      -273.6390
  35   1.0000     -10.051348      -273.5111
  36   1.0000     -10.050254      -273.4813
  37   1.0000     -10.036568      -273.1089
  38   1.0000     -10.032147      -272.9886
  39   1.0000     -10.032132      -272.9882
  40   1.0000     -10.024576      -272.7826
  41   1.0000     -10.024083      -272.7692
  42   1.0000     -10.023725      -272.7594
  43   1.0000     -10.020059      -272.6597
  44   1.0000     -10.015621      -272.5389
  45   1.0000     -10.015242      -272.5286
  46   1.0000     -10.012664      -272.4584
  47   1.0000     -10.011983      -272.4399
  48   1.0000     -10.010877      -272.4098
  49   1.0000     -10.010019      -272.3865
  50   1.0000     -10.005626      -272.2669
  51   1.0000      -9.971140      -271.3285
  52   1.0000      -9.950208      -270.7589
  53   1.0000      -3.460043       -94.1525
  54   1.0000      -3.314882       -90.2025
  55   1.0000      -2.288152       -62.2638
  56   1.0000      -2.267052       -61.6896
  57   1.0000      -2.262782       -61.5734
  58   1.0000      -2.134193       -58.0744
  59   1.0000      -2.130084       -57.9625
  60   1.0000      -2.128170       -57.9104
  61   1.0000      -1.167303       -31.7639
  62   1.0000      -1.056998       -28.7624
  63   1.0000      -1.055910       -28.7328
  64   1.0000      -1.054507       -28.6946
  65   1.0000      -1.052628       -28.6435
  66   1.0000      -1.042871       -28.3780
  67   1.0000      -1.040439       -28.3118
  68   1.0000      -1.029696       -28.0195
  69   1.0000      -1.029536       -28.0151
  70   1.0000      -1.013273       -27.5726
  71   1.0000      -1.000724       -27.2311
  72   1.0000      -0.986147       -26.8344
  73   1.0000      -0.970385       -26.4055
  74   1.0000      -0.949846       -25.8466
  75   1.0000      -0.943781       -25.6816
  76   1.0000      -0.933230       -25.3945
  77   1.0000      -0.917435       -24.9647
  78   1.0000      -0.914695       -24.8901
  79   1.0000      -0.905942       -24.6519
  80   1.0000      -0.903280       -24.5795
  81   1.0000      -0.809662       -22.0320
  82   1.0000      -0.792715       -21.5709
  83   1.0000      -0.790756       -21.5176
  84   1.0000      -0.780187       -21.2300
  85   1.0000      -0.778752       -21.1909
  86   1.0000      -0.775764       -21.1096
  87   1.0000      -0.740497       -20.1500
  88   1.0000      -0.734450       -19.9854
  89   1.0000      -0.716785       -19.5047
  90   1.0000      -0.716343       -19.4927
  91   1.0000      -0.676972       -18.4213
  92   1.0000      -0.675708       -18.3869
  93   1.0000      -0.665014       -18.0960
  94   1.0000      -0.664581       -18.0842
  95   1.0000      -0.651466       -17.7273
  96   1.0000      -0.649756       -17.6808
  97   1.0000      -0.644506       -17.5379
  98   1.0000      -0.641231       -17.4488
  99   1.0000      -0.637063       -17.3354
 100   1.0000      -0.626439       -17.0463
 101   1.0000      -0.621876       -16.9221
 102   1.0000      -0.613703       -16.6997
 103   1.0000      -0.612337       -16.6625
 104   1.0000      -0.608296       -16.5526
 105   1.0000      -0.594898       -16.1880
 106   1.0000      -0.572669       -15.5831
 107   1.0000      -0.569199       -15.4887
 108   1.0000      -0.561672       -15.2839
 109   1.0000      -0.546760       -14.8781
 110   1.0000      -0.545059       -14.8318
 111   1.0000      -0.533889       -14.5279
 112   1.0000      -0.526551       -14.3282
 113   1.0000      -0.517219       -14.0742
 114   1.0000      -0.514566       -14.0020
 115   1.0000      -0.512215       -13.9381
 116   1.0000      -0.511367       -13.9150
 117   1.0000      -0.509971       -13.8770
 118   1.0000      -0.508200       -13.8288
 119   1.0000      -0.506680       -13.7875
 120   1.0000      -0.505224       -13.7479
 121   1.0000      -0.503474       -13.7002
 122   1.0000      -0.501272       -13.6403
 123   1.0000      -0.500139       -13.6095
 124   1.0000      -0.498787       -13.5727
 125   1.0000      -0.497285       -13.5318
 126   1.0000      -0.496346       -13.5063
 127   1.0000      -0.491781       -13.3820
 128   1.0000      -0.490499       -13.3472
 129   1.0000      -0.489522       -13.3206
 130   1.0000      -0.488383       -13.2896
 131   1.0000      -0.485596       -13.2137
 132   1.0000      -0.480836       -13.0842
 133   1.0000      -0.480309       -13.0699
 134   1.0000      -0.477931       -13.0052
 135   1.0000      -0.475415       -12.9367
 136   1.0000      -0.468388       -12.7455
 137   1.0000      -0.466750       -12.7009
 138   1.0000      -0.464972       -12.6525
 139   1.0000      -0.464085       -12.6284
 140   1.0000      -0.455977       -12.4078
 141   1.0000      -0.453187       -12.3318
 142   1.0000      -0.451104       -12.2752
 143   1.0000      -0.441737       -12.0203
 144   1.0000      -0.439345       -11.9552
 145   1.0000      -0.433073       -11.7845
 146   1.0000      -0.432384       -11.7658
 147   1.0000      -0.423429       -11.5221
 148   1.0000      -0.416431       -11.3317
 149   1.0000      -0.412960       -11.2372
 150   1.0000      -0.408696       -11.1212
 151   1.0000      -0.407786       -11.0964
 152   1.0000      -0.406312       -11.0563
 153   1.0000      -0.399554       -10.8724
 154   1.0000      -0.396570       -10.7912
 155   1.0000      -0.391508       -10.6535
 156   1.0000      -0.387158       -10.5351
 157   1.0000      -0.383255       -10.4289
 158   1.0000      -0.380571       -10.3559
 159   1.0000      -0.375819       -10.2265
 160   1.0000      -0.373458       -10.1623
 161   1.0000      -0.370480       -10.0813
 162   1.0000      -0.366642        -9.9768
 163   1.0000      -0.364983        -9.9317
 164   1.0000      -0.361943        -9.8490
 165   1.0000      -0.357682        -9.7330
 166   1.0000      -0.355209        -9.6657
 167   1.0000      -0.349480        -9.5098
 168   1.0000      -0.339709        -9.2440
 169   1.0000      -0.332097        -9.0368
 170   1.0000      -0.330313        -8.9883
 171   1.0000      -0.323913        -8.8141
 172   1.0000      -0.322241        -8.7686
 173   1.0000      -0.320079        -8.7098
 174   1.0000      -0.317097        -8.6286
 175   1.0000      -0.314362        -8.5542
 176   1.0000      -0.312176        -8.4947
 177   1.0000      -0.308178        -8.3859
 178   1.0000      -0.307762        -8.3746
 179   1.0000      -0.306518        -8.3408
 180   1.0000      -0.299502        -8.1499
 181   1.0000      -0.296238        -8.0610
 182   1.0000      -0.287311        -7.8181
 183   1.0000      -0.279255        -7.5989
 184   1.0000      -0.277687        -7.5563
 185   1.0000      -0.275590        -7.4992
 186   1.0000      -0.269268        -7.3272
 187   1.0000      -0.260390        -7.0856
 188   1.0000      -0.249292        -6.7836
 189   0.0000      -0.226665        -6.1679
 190   0.0000      -0.221402        -6.0246
 191   0.0000      -0.209867        -5.7108
 192   0.0000      -0.177991        -4.8434
 193   0.0000      -0.156881        -4.2689

                 SPIN DOWN ORBITALS
  NO   OCC          E(Eh)            E(eV)
   0   1.0000    -254.932433     -6937.0642
   1   1.0000    -254.913464     -6936.5480
   2   1.0000     -29.711278      -808.4850
   3   1.0000     -29.615620      -805.8820
   4   1.0000     -25.645981      -697.8626
   5   1.0000     -25.641602      -697.7435
   6   1.0000     -25.640194      -697.7051
   7   1.0000     -25.570354      -695.8047
   8   1.0000     -25.563398      -695.6154
   9   1.0000     -25.562308      -695.5858
  10   1.0000     -18.899903      -514.2925
  11   1.0000     -18.892198      -514.0829
  12   1.0000     -18.890335      -514.0321
  13   1.0000     -18.858178      -513.1571
  14   1.0000     -18.842840      -512.7397
  15   1.0000     -18.838178      -512.6129
  16   1.0000     -18.838135      -512.6117
  17   1.0000     -18.830396      -512.4011
  18   1.0000     -18.828196      -512.3413
  19   1.0000     -18.822482      -512.1858
  20   1.0000     -18.818627      -512.0809
  21   1.0000     -18.810734      -511.8661
  22   1.0000     -18.790804      -511.3238
  23   1.0000     -14.174642      -385.7116
  24   1.0000     -14.173604      -385.6834
  25   1.0000     -14.162986      -385.3944
  26   1.0000     -14.161230      -385.3467
  27   1.0000     -14.117966      -384.1694
  28   1.0000     -14.115402      -384.0996
  29   1.0000     -14.104275      -383.7968
  30   1.0000     -14.097957      -383.6249
  31   1.0000     -10.085515      -274.4408
  32   1.0000     -10.065414      -273.8938
  33   1.0000     -10.064954      -273.8813
  34   1.0000     -10.056040      -273.6388
  35   1.0000     -10.051177      -273.5064
  36   1.0000     -10.050184      -273.4794
  37   1.0000     -10.036609      -273.1100
  38   1.0000     -10.032393      -272.9953
  39   1.0000     -10.032191      -272.9898
  40   1.0000     -10.024488      -272.7802
  41   1.0000     -10.024158      -272.7712
  42   1.0000     -10.023672      -272.7580
  43   1.0000     -10.020113      -272.6611
  44   1.0000     -10.015633      -272.5392
  45   1.0000     -10.015272      -272.5294
  46   1.0000     -10.012910      -272.4651
  47   1.0000     -10.012036      -272.4413
  48   1.0000     -10.010801      -272.4078
  49   1.0000     -10.010071      -272.3879
  50   1.0000     -10.005594      -272.2661
  51   1.0000      -9.971212      -271.3305
  52   1.0000      -9.950049      -270.7546
  53   1.0000      -3.482483       -94.7632
  54   1.0000      -3.297281       -89.7236
  55   1.0000      -2.301999       -62.6406
  56   1.0000      -2.292286       -62.3763
  57   1.0000      -2.290086       -62.3164
  58   1.0000      -2.119391       -57.6716
  59   1.0000      -2.111797       -57.4649
  60   1.0000      -2.109177       -57.3936
  61   1.0000      -1.132179       -30.8082
  62   1.0000      -1.059125       -28.8202
  63   1.0000      -1.057385       -28.7729
  64   1.0000      -1.055491       -28.7214
  65   1.0000      -1.053329       -28.6625
  66   1.0000      -1.042161       -28.3586
  67   1.0000      -1.039664       -28.2907
  68   1.0000      -1.029920       -28.0255
  69   1.0000      -1.027129       -27.9496
  70   1.0000      -1.013647       -27.5827
  71   1.0000      -1.001005       -27.2387
  72   1.0000      -0.986486       -26.8437
  73   1.0000      -0.972533       -26.4640
  74   1.0000      -0.963099       -26.2073
  75   1.0000      -0.943230       -25.6666
  76   1.0000      -0.932325       -25.3698
  77   1.0000      -0.918616       -24.9968
  78   1.0000      -0.915864       -24.9219
  79   1.0000      -0.904739       -24.6192
  80   1.0000      -0.901893       -24.5418
  81   1.0000      -0.811278       -22.0760
  82   1.0000      -0.793021       -21.5792
  83   1.0000      -0.791118       -21.5274
  84   1.0000      -0.779652       -21.2154
  85   1.0000      -0.778304       -21.1787
  86   1.0000      -0.740995       -20.1635
  87   1.0000      -0.735099       -20.0031
  88   1.0000      -0.726227       -19.7616
  89   1.0000      -0.718344       -19.5471
  90   1.0000      -0.716085       -19.4857
  91   1.0000      -0.677852       -18.4453
  92   1.0000      -0.676539       -18.4096
  93   1.0000      -0.664026       -18.0691
  94   1.0000      -0.663656       -18.0590
  95   1.0000      -0.652143       -17.7457
  96   1.0000      -0.650381       -17.6978
  97   1.0000      -0.645221       -17.5573
  98   1.0000      -0.640440       -17.4272
  99   1.0000      -0.636295       -17.3145
 100   1.0000      -0.626857       -17.0577
 101   1.0000      -0.622228       -16.9317
 102   1.0000      -0.615676       -16.7534
 103   1.0000      -0.611888       -16.6503
 104   1.0000      -0.607860       -16.5407
 105   1.0000      -0.595708       -16.2100
 106   1.0000      -0.576099       -15.6765
 107   1.0000      -0.570165       -15.5150
 108   1.0000      -0.562706       -15.3120
 109   1.0000      -0.545737       -14.8502
 110   1.0000      -0.542355       -14.7582
 111   1.0000      -0.534268       -14.5382
 112   1.0000      -0.526555       -14.3283
 113   1.0000      -0.518051       -14.0969
 114   1.0000      -0.515850       -14.0370
 115   1.0000      -0.513282       -13.9671
 116   1.0000      -0.511418       -13.9164
 117   1.0000      -0.509639       -13.8680
 118   1.0000      -0.508400       -13.8343
 119   1.0000      -0.506686       -13.7876
 120   1.0000      -0.504310       -13.7230
 121   1.0000      -0.502798       -13.6818
 122   1.0000      -0.500821       -13.6280
 123   1.0000      -0.498379       -13.5616
 124   1.0000      -0.497325       -13.5329
 125   1.0000      -0.495916       -13.4946
 126   1.0000      -0.489788       -13.3278
 127   1.0000      -0.488644       -13.2967
 128   1.0000      -0.486730       -13.2446
 129   1.0000      -0.485455       -13.2099
 130   1.0000      -0.482980       -13.1426
 131   1.0000      -0.479200       -13.0397
 132   1.0000      -0.477179       -12.9847
 133   1.0000      -0.470685       -12.8080
 134   1.0000      -0.469700       -12.7812
 135   1.0000      -0.467066       -12.7095
 136   1.0000      -0.466592       -12.6966
 137   1.0000      -0.465549       -12.6682
 138   1.0000      -0.458467       -12.4755
 139   1.0000      -0.456062       -12.4101
 140   1.0000      -0.454984       -12.3807
 141   1.0000      -0.451780       -12.2936
 142   1.0000      -0.449805       -12.2398
 143   1.0000      -0.441850       -12.0233
 144   1.0000      -0.434363       -11.8196
 145   1.0000      -0.433453       -11.7948
 146   1.0000      -0.430815       -11.7231
 147   1.0000      -0.428156       -11.6507
 148   1.0000      -0.419763       -11.4223
 149   1.0000      -0.416318       -11.3286
 150   1.0000      -0.413545       -11.2531
 151   1.0000      -0.408951       -11.1281
 152   1.0000      -0.406313       -11.0563
 153   1.0000      -0.402471       -10.9518
 154   1.0000      -0.398853       -10.8533
 155   1.0000      -0.396057       -10.7773
 156   1.0000      -0.393488       -10.7074
 157   1.0000      -0.389885       -10.6093
 158   1.0000      -0.378928       -10.3112
 159   1.0000      -0.378014       -10.2863
 160   1.0000      -0.374916       -10.2020
 161   1.0000      -0.373937       -10.1754
 162   1.0000      -0.367088        -9.9890
 163   1.0000      -0.364392        -9.9156
 164   1.0000      -0.363546        -9.8926
 165   1.0000      -0.361830        -9.8459
 166   1.0000      -0.359481        -9.7820
 167   1.0000      -0.350654        -9.5418
 168   1.0000      -0.339110        -9.2276
 169   1.0000      -0.334560        -9.1039
 170   1.0000      -0.327040        -8.8992
 171   1.0000      -0.322640        -8.7795
 172   1.0000      -0.320457        -8.7201
 173   1.0000      -0.319890        -8.7046
 174   1.0000      -0.317624        -8.6430
 175   1.0000      -0.315778        -8.5928
 176   1.0000      -0.310819        -8.4578
 177   1.0000      -0.309934        -8.4337
 178   1.0000      -0.307480        -8.3670
 179   1.0000      -0.307080        -8.3561
 180   1.0000      -0.303181        -8.2500
 181   1.0000      -0.296587        -8.0705
 182   1.0000      -0.288246        -7.8436
 183   1.0000      -0.284920        -7.7531
 184   1.0000      -0.279793        -7.6135
 185   1.0000      -0.273314        -7.4373
 186   1.0000      -0.255958        -6.9650
 187   1.0000      -0.253303        -6.8927
 188   0.0000      -0.214090        -5.8257
 189   0.0000      -0.209682        -5.7057
 190   0.0000      -0.192872        -5.2483
 191   0.0000      -0.178239        -4.8501
 192   0.0000      -0.160475        -4.3668

MULLIKEN ATOMIC CHARGES AND SPIN POPULATIONS
--------------------------------------------
   0 C :   -0.048311    0.006352
   1 N :   -0.182821    0.003295
   2 H :    0.254509    0.001705
   3 C :    0.011958    0.011421
   4 H :    0.194493    0.000221
   5 N :   -0.072904    0.018809
   6 C :   -0.110366    0.004500
   7 H :    0.166023    0.000695
   8 C :   -0.081950    0.002713
   9 N :   -0.193063    0.001816
  10 H :    0.247494    0.002365
  11 C :    0.020561    0.004169
  12 H :    0.176974    0.001064
  13 N :   -0.033233    0.037734
  14 C :   -0.108152    0.001638
  15 H :    0.184100   -0.001293
  16 C :   -0.390793   -0.003987
  17 H :    0.134765   -0.001885
  18 H :    0.146872   -0.000786
  19 C :    0.432004   -0.002210
  20 O :   -0.437662   -0.088269
  21 O :   -0.367797    0.025603
  22 C :   -0.047185   -0.001792
  23 N :   -0.196589   -0.002772
  24 H :    0.254663   -0.001647
  25 C :    0.049648   -0.005280
  26 H :    0.162129   -0.000425
  27 N :   -0.123252   -0.023776
  28 C :   -0.123930   -0.002867
  29 H :    0.168673   -0.000338
  30 C :   -0.049762   -0.002607
  31 N :   -0.193256   -0.003098
  32 H :    0.252692   -0.001860
  33 C :    0.024548   -0.010245
  34 H :    0.194988   -0.000392
  35 N :   -0.135193   -0.025392
  36 C :   -0.151441    0.000406
  37 H :    0.216538   -0.000742
  38 C :   -0.374857    0.008401
  39 H :    0.120247   -0.000171
  40 H :    0.142722    0.001110
  41 C :    0.367805    0.002226
  42 O :   -0.389879    0.073991
  43 O :   -0.485938    0.008076
  44 Fe:    0.531672    3.914715
  45 Fe:    0.552338   -4.044278
  46 O :   -0.716810   -0.001388
  47 H :    0.349889   -0.000311
  48 C :    0.163799   -0.004182
  49 C :   -0.026394   -0.014296
  50 C :    0.064483   -0.002293
  51 C :    0.015591   -0.001062
  52 C :   -0.000224   -0.002950
  53 C :    0.038038   -0.007810
  54 O :   -0.433352   -0.338163
  55 O :   -0.423878   -0.000393
  56 O :   -0.388012   -0.002583
  57 O :   -0.359267   -0.000948
  58 O :   -0.407248   -0.000780
  59 O :   -0.391077   -0.038073
  60 H :    0.118036   -0.010718
  61 H :    0.107288    0.000534
  62 H :    0.089760   -0.000067
  63 H :    0.083842   -0.000076
  64 H :    0.096168   -0.000072
  65 H :    0.088485   -0.000968
  66 H :    0.316656   -0.000032
  67 H :    0.302144    0.000075
  68 H :    0.268266   -0.000016
  69 H :    0.279130   -0.000171
  70 H :    0.339367   -0.003873
  71 O :   -0.101143    0.755816
  72 O :   -0.110326    0.765477
  73 H :    0.169132    0.000671
  74 H :    0.158690    0.001175
  75 H :    0.126899    0.002698
  76 H :    0.173547   -0.000872
  77 H :    0.176095   -0.000844
  78 H :    0.122342   -0.000418
Sum of atomic charges         :    1.0000000

LOEWDIN ATOMIC CHARGES AND SPIN POPULATIONS
-------------------------------------------
   0 C :   -0.218580    0.005199
   1 N :    0.202947    0.004140
   2 H :    0.212119    0.000896
   3 C :   -0.261854    0.010651
   4 H :    0.150257    0.000244
   5 N :    0.168354    0.043217
   6 C :   -0.212142    0.006174
   7 H :    0.151104    0.000626
   8 C :   -0.223692    0.002957
   9 N :    0.200889    0.002341
  10 H :    0.206583    0.001202
  11 C :   -0.269229    0.006039
  12 H :    0.142485    0.000345
  13 N :    0.184507    0.061321
  14 C :   -0.214312    0.004402
  15 H :    0.151795    0.000587
  16 C :   -0.269143   -0.002939
  17 H :    0.133657   -0.001108
  18 H :    0.147615   -0.000548
  19 C :   -0.546684   -0.009523
  20 O :    0.119115   -0.106374
  21 O :    0.156727    0.045505
  22 C :   -0.212128   -0.002205
  23 N :    0.208085   -0.002870
  24 H :    0.210241   -0.000888
  25 C :   -0.274832   -0.005509
  26 H :    0.138107   -0.000275
  27 N :    0.164183   -0.048042
  28 C :   -0.227309   -0.004590
  29 H :    0.146328   -0.000456
  30 C :   -0.213996   -0.002771
  31 N :    0.206777   -0.003747
  32 H :    0.210171   -0.001015
  33 C :   -0.275703   -0.009783
  34 H :    0.145118   -0.000196
  35 N :    0.155687   -0.048016
  36 C :   -0.216407   -0.003220
  37 H :    0.152705   -0.000216
  38 C :   -0.281505    0.005967
  39 H :    0.139855    0.000005
  40 H :    0.136114    0.000796
  41 C :   -0.593912    0.008708
  42 O :    0.116019    0.084675
  43 O :   -0.009275    0.006160
  44 Fe:    0.046085    3.802641
  45 Fe:    0.133276   -3.923689
  46 O :   -0.148792   -0.001531
  47 H :    0.153298   -0.000756
  48 C :   -0.353415   -0.030774
  49 C :   -0.331389   -0.009863
  50 C :   -0.336470   -0.001982
  51 C :   -0.326630   -0.000651
  52 C :   -0.340111   -0.003675
  53 C :   -0.300927   -0.012312
  54 O :    0.044898   -0.322872
  55 O :    0.003580   -0.000685
  56 O :    0.014538   -0.002490
  57 O :    0.017052   -0.000942
  58 O :    0.005535   -0.000977
  59 O :    0.122079   -0.054763
  60 H :    0.161089   -0.008463
  61 H :    0.146623    0.000155
  62 H :    0.150903   -0.000020
  63 H :    0.147174   -0.000053
  64 H :    0.150060   -0.000076
  65 H :    0.147865   -0.000327
  66 H :    0.203239   -0.000146
  67 H :    0.198177   -0.000030
  68 H :    0.177309   -0.000038
  69 H :    0.178623   -0.000168
  70 H :    0.220924   -0.003687
  71 O :   -0.019900    0.760271
  72 O :   -0.035482    0.768689
  73 H :    0.145898    0.000452
  74 H :    0.143539    0.000598
  75 H :    0.125946    0.001220
  76 H :    0.148374   -0.000504
  77 H :    0.148887   -0.000495
  78 H :    0.121306    0.000079

  Mayer bond orders larger than 0.100000
B(  0-C ,  1-N ) :   1.1582 B(  0-C ,  6-C ) :   1.6051 B(  0-C , 73-H ) :   0.9375
B(  1-N ,  2-H ) :   0.9011 B(  1-N ,  3-C ) :   1.2896 B(  3-C ,  4-H ) :   0.9289
B(  3-C ,  5-N ) :   1.4442 B(  5-N ,  6-C ) :   1.2128 B(  5-N , 44-Fe) :   0.5546
B(  6-C ,  7-H ) :   0.9559 B(  8-C ,  9-N ) :   1.1674 B(  8-C , 11-C ) :   0.1006
B(  8-C , 14-C ) :   1.6080 B(  8-C , 74-H ) :   0.9438 B(  9-N , 10-H ) :   0.9048
B(  9-N , 11-C ) :   1.2879 B( 11-C , 12-H ) :   0.9358 B( 11-C , 13-N ) :   1.4828
B( 13-N , 14-C ) :   1.2324 B( 13-N , 44-Fe) :   0.4403 B( 14-C , 15-H ) :   0.9396
B( 16-C , 17-H ) :   0.9755 B( 16-C , 18-H ) :   0.9453 B( 16-C , 19-C ) :   0.9439
B( 16-C , 75-H ) :   0.9637 B( 19-C , 20-O ) :   1.4100 B( 19-C , 21-O ) :   1.5917
B( 20-O , 45-Fe) :   0.5353 B( 21-O , 44-Fe) :   0.3722 B( 22-C , 23-N ) :   1.1575
B( 22-C , 28-C ) :   1.6079 B( 22-C , 76-H ) :   0.9396 B( 23-N , 24-H ) :   0.9018
B( 23-N , 25-C ) :   1.3133 B( 25-C , 26-H ) :   0.9265 B( 25-C , 27-N ) :   1.4410
B( 27-N , 28-C ) :   1.2224 B( 27-N , 45-Fe) :   0.4317 B( 28-C , 29-H ) :   0.9532
B( 30-C , 31-N ) :   1.1650 B( 30-C , 36-C ) :   1.6303 B( 30-C , 77-H ) :   0.9336
B( 31-N , 32-H ) :   0.9023 B( 31-N , 33-C ) :   1.3041 B( 33-C , 34-H ) :   0.9316
B( 33-C , 35-N ) :   1.4500 B( 35-N , 36-C ) :   1.1845 B( 35-N , 45-Fe) :   0.4800
B( 36-C , 37-H ) :   0.9128 B( 38-C , 39-H ) :   0.9396 B( 38-C , 40-H ) :   0.9720
B( 38-C , 41-C ) :   0.9678 B( 38-C , 78-H ) :   0.9636 B( 41-C , 42-O ) :   1.4779
B( 41-C , 43-O ) :   1.6093 B( 42-O , 44-Fe) :   0.4922 B( 43-O , 47-H ) :   0.1818
B( 44-Fe, 46-O ) :   0.5287 B( 44-Fe, 71-O ) :   0.4856 B( 44-Fe, 72-O ) :   0.4352
B( 45-Fe, 46-O ) :   0.5516 B( 45-Fe, 54-O ) :   0.9699 B( 45-Fe, 59-O ) :   0.2859
B( 46-O , 47-H ) :   0.7344 B( 48-C , 49-C ) :   0.8429 B( 48-C , 53-C ) :   0.9225
B( 48-C , 54-O ) :   0.9133 B( 48-C , 55-O ) :  -0.1365 B( 48-C , 60-H ) :   0.9347
B( 49-C , 50-C ) :   0.8947 B( 49-C , 55-O ) :   1.2353 B( 49-C , 61-H ) :   0.9490
B( 50-C , 51-C ) :   0.9252 B( 50-C , 56-O ) :   1.1040 B( 50-C , 62-H ) :   0.9515
B( 51-C , 52-C ) :   0.9521 B( 51-C , 57-O ) :   1.0602 B( 51-C , 63-H ) :   0.9535
B( 52-C , 53-C ) :   0.9261 B( 52-C , 58-O ) :   1.0492 B( 52-C , 64-H ) :   0.9605
B( 53-C , 59-O ) :   0.8002 B( 53-C , 65-H ) :   0.9487 B( 55-O , 66-H ) :   0.8852
B( 56-O , 67-H ) :   0.8875 B( 57-O , 68-H ) :   0.8887 B( 58-O , 69-H ) :   0.8799
B( 59-O , 70-H ) :   0.8487 B( 71-O , 72-O ) :   1.3333

FINAL SINGLE POINT ENERGY     -4803.491768242633

DIPOLE MOMENT
-------------
                                X             Y             Z
Electronic contribution:     -6.70267       6.97768      -6.25081
Nuclear contribution   :      2.83187      -8.56052       3.37323
                        -----------------------------------------
Total Dipole Moment    :     -3.87080      -1.58284      -2.87759
                        -----------------------------------------
Magnitude (a.u.)       :      5.07631
Magnitude (Debye)      :     12.90296

Rotational constants in cm-1:     0.002818     0.001896     0.001591
Rotational constants in MHz :    84.485992    56.848204    47.689819

                             ****ORCA TERMINATED NORMALLY****
TOTAL RUN TIME: 0 days 16 hours 41 minutes 21 seconds 999 msec
