 Gaussian 16, Revision A.03,
 Gaussian 16:  ES64L-G16RevA.03 25-Dec-2016

 ---------------------------------------
 #p UHF/aug-cc-pVQZ guess=mix stable=opt
 ---------------------------------------

 ----------------------
 BH UHF at 0.8 Angstrom
 ----------------------
 Symbolic Z-matrix:
 Charge =  0 Multiplicity = 1

                         Standard orientation:
 ---------------------------------------------------------------------
 Center     Atomic      Atomic             Coordinates (Angstroms)
 Number     Number       Type             X           Y           Z
 ---------------------------------------------------------------------
      1          5           0        0.000000    0.000000    0.133333
      2          1           0        0.000000    0.000000   -0.666667
 ---------------------------------------------------------------------

 SCF Done:  E(UHF) =  -24.9879166759     A.U. after   11 cycles

 Unable to determine electronic state:  an orbital has unidentified symmetry.
 Alpha  occ. eigenvalues --   -7.63329  -0.76288  -0.36890
 Alpha virt. eigenvalues --    0.02697   0.02788   0.03436   0.04259   0.08163
 Alpha virt. eigenvalues --    0.08970   0.12393   0.13046   0.13400   0.14336
 Alpha virt. eigenvalues --    0.14647   0.14656   0.17277   0.26766   0.26797

  Beta  occ. eigenvalues --   -7.63329  -0.76288  -0.36890
  Beta virt. eigenvalues --    0.02697   0.02788   0.03436   0.04259   0.08163
  Beta virt. eigenvalues --    0.08970   0.12393   0.13046   0.13400   0.14336
  Beta virt. eigenvalues --    0.14647   0.14656   0.17277   0.26766   0.26797

 Mulliken charges and spin densities:
               1          2
     1  B   -0.057364   0.000000
     2  H    0.057364   0.000000
 Sum of Mulliken charges =  -0.00000   0.00000

 Dipole moment (field-independent basis, Debye):
    X=              0.0000    Y=             -0.0000    Z=             -1.8567  Tot=              1.8567
 Quadrupole moment (field-independent basis, Debye-Ang):
   XX=             -7.2326   YY=             -5.9685   ZZ=             -8.9979
   XY=              0.0000   XZ=              0.0000   YZ=             -0.0000

 Normal termination of Gaussian 16 at Sun May 22 21:02:38 2022.
