                         Program Version 5.0.0 -  RELEASE  -
|  1> ! UHF CCSD(T) aug-cc-pVQZ VeryTightSCF MOread
|  2>
|  3> %moinp "BH-0.9-UHF-O.gbw"
|  4>
|  5> *xyz 0 1
|  6>  B	0.0	0.0	0.0
|  7>  H	0.9	0.0	0.0
|  8> **                         ****END OF INPUT****

CARTESIAN COORDINATES (ANGSTROEM)
---------------------------------
  B      0.000000    0.000000    0.000000
  H      0.900000    0.000000    0.000000

 Total Charge           Charge          ....    0
 Multiplicity           Mult            ....    1
 Number of Electrons    NEL             ....    6
 Basis Dimension        Dim             ....  126

ORBITAL ENERGIES
----------------
                 SPIN UP ORBITALS
  NO   OCC          E(Eh)            E(eV)
   0   1.0000      -7.637820      -207.8356
   1   1.0000      -0.733213       -19.9517
   2   1.0000      -0.368341       -10.0231
   3   0.0000       0.026830         0.7301
   4   0.0000       0.028450         0.7742
   5   0.0000       0.034196         0.9305
   6   0.0000       0.043093         1.1726
   7   0.0000       0.082147         2.2353

                 SPIN DOWN ORBITALS
  NO   OCC          E(Eh)            E(eV)
   0   1.0000      -7.637820      -207.8356
   1   1.0000      -0.733213       -19.9517
   2   1.0000      -0.368341       -10.0231
   3   0.0000       0.026830         0.7301
   4   0.0000       0.028450         0.7742
   5   0.0000       0.034196         0.9305
   6   0.0000       0.043093         1.1726
   7   0.0000       0.082147         2.2353

E(0)                                       ...    -25.068722641
E(0)                                       ...    -25.068722641
E(CORR)                                    ...     -0.091133023
E(TOT)                                     ...    -25.159855664
E(CCSD(T))                                 ...    -25.162003812

MULLIKEN ATOMIC CHARGES AND SPIN DENSITIES
------------------------------------------
   0 B :   -0.013453   -0.000000
   1 H :    0.013453    0.000000
Sum of atomic charges       :   -0.0000000

LOEWDIN ATOMIC CHARGES AND SPIN DENSITIES
-----------------------------------------
   0 B :    0.668344    0.000000
   1 H :   -0.668344   -0.000000

  Mayer bond orders larger than 0.100000
B(  0-B ,  1-H ) :   0.7786

FINAL SINGLE POINT ENERGY       -25.162003812310

DIPOLE MOMENT
-------------
                                X             Y             Z
Electronic contribution:      0.09770       0.00000       0.00000
Nuclear contribution   :      0.83037       0.00000       0.00000
                        -----------------------------------------
Total Dipole Moment    :      0.92807       0.00000       0.00000
                        -----------------------------------------
Magnitude (a.u.)       :      0.92807
Magnitude (Debye)      :      2.35898

Rotational constants in cm-1:     0.000000    22.571979    22.571979
Rotational constants in MHz :     0.000000 676690.913138 676690.913138

                             ****ORCA TERMINATED NORMALLY****
TOTAL RUN TIME: 0 days 0 hours 1 minutes 3 seconds 225 msec
