                         Program Version 5.0.0 -  RELEASE  -
|  1> ! UHF CCSD(T) aug-cc-pVQZ VeryTightSCF MOread
|  2>
|  3> %moinp "BH-0.8-UHF-O.gbw"
|  4>
|  5> *xyz 0 1
|  6>  B	0.0	0.0	0.0
|  7>  H	0.8	0.0	0.0
|  8> **                         ****END OF INPUT****

CARTESIAN COORDINATES (ANGSTROEM)
---------------------------------
  B      0.000000    0.000000    0.000000
  H      0.800000    0.000000    0.000000

 Total Charge           Charge          ....    0
 Multiplicity           Mult            ....    1
 Number of Electrons    NEL             ....    6
 Basis Dimension        Dim             ....  126

ORBITAL ENERGIES
----------------
                 SPIN UP ORBITALS
  NO   OCC          E(Eh)            E(eV)
   0   1.0000      -7.633298      -207.7126
   1   1.0000      -0.762880       -20.7590
   2   1.0000      -0.368903       -10.0384
   3   0.0000       0.026969         0.7339
   4   0.0000       0.027876         0.7585
   5   0.0000       0.034357         0.9349
   6   0.0000       0.042591         1.1590
   7   0.0000       0.081632         2.2213

                 SPIN DOWN ORBITALS
  NO   OCC          E(Eh)            E(eV)
   0   1.0000      -7.633298      -207.7126
   1   1.0000      -0.762880       -20.7590
   2   1.0000      -0.368903       -10.0384
   3   0.0000       0.026969         0.7339
   4   0.0000       0.027876         0.7585
   5   0.0000       0.034357         0.9349
   6   0.0000       0.042591         1.1590
   7   0.0000       0.081632         2.2213

E(0)                                       ...    -24.987916901
E(0)                                       ...    -24.987916901
E(CORR)                                    ...     -0.090870588
E(TOT)                                     ...    -25.078787490
E(CCSD(T))                                 ...    -25.080933000

MULLIKEN ATOMIC CHARGES AND SPIN DENSITIES
------------------------------------------
   0 B :   -0.087480    0.000000
   1 H :    0.087480   -0.000000
Sum of atomic charges       :    0.0000000

LOEWDIN ATOMIC CHARGES AND SPIN DENSITIES
-----------------------------------------
   0 B :    0.747388    0.000000
   1 H :   -0.747388   -0.000000

  Mayer bond orders larger than 0.100000
B(  0-B ,  1-H ) :   0.7156

FINAL SINGLE POINT ENERGY       -25.080933000391

DIPOLE MOMENT
-------------
                                X             Y             Z
Electronic contribution:      0.24505       0.00000       0.00000
Nuclear contribution   :      0.73811       0.00000       0.00000
                        -----------------------------------------
Total Dipole Moment    :      0.98316       0.00000       0.00000
                        -----------------------------------------
Magnitude (a.u.)       :      0.98316
Magnitude (Debye)      :      2.49899

Rotational constants in cm-1:     0.000000    28.567661    28.567661
Rotational constants in MHz :     0.000000 856436.936940 856436.936940

                             ****ORCA TERMINATED NORMALLY****
TOTAL RUN TIME: 0 days 0 hours 1 minutes 2 seconds 340 msec
