                         Program Version 5.0.0 -  RELEASE  -
|  1> ! UHF CCSD(T) aug-cc-pVQZ VeryTightSCF MOread
|  2>
|  3> %moinp "BH-1.3-UHF-O.gbw"
|  4>
|  5> *xyz 0 1
|  6>  B	0.0	0.0	0.0
|  7>  H	1.3	0.0	0.0
|  8> **                         ****END OF INPUT****

CARTESIAN COORDINATES (ANGSTROEM)
---------------------------------
  B      0.000000    0.000000    0.000000
  H      1.300000    0.000000    0.000000

 Total Charge           Charge          ....    0
 Multiplicity           Mult            ....    1
 Number of Electrons    NEL             ....    6
 Basis Dimension        Dim             ....  126

ORBITAL ENERGIES
----------------
                 SPIN UP ORBITALS
  NO   OCC          E(Eh)            E(eV)
   0   1.0000      -7.684686      -209.1109
   1   1.0000      -0.625387       -17.0176
   2   1.0000      -0.370482       -10.0813
   3   0.0000       0.025282         0.6879
   4   0.0000       0.029431         0.8009
   5   0.0000       0.033597         0.9142
   6   0.0000       0.045137         1.2282
   7   0.0000       0.080397         2.1877

                 SPIN DOWN ORBITALS
  NO   OCC          E(Eh)            E(eV)
   0   1.0000      -7.684686      -209.1109
   1   1.0000      -0.625387       -17.0176
   2   1.0000      -0.370482       -10.0813
   3   0.0000       0.025282         0.6879
   4   0.0000       0.029431         0.8009
   5   0.0000       0.033597         0.9142
   6   0.0000       0.045137         1.2282
   7   0.0000       0.080397         2.1877

E(0)                                       ...    -25.135245145
E(0)                                       ...    -25.135245145
E(CORR)                                    ...     -0.096211265
E(TOT)                                     ...    -25.231456410
E(CCSD(T))                                 ...    -25.233853623

MULLIKEN ATOMIC CHARGES AND SPIN DENSITIES
------------------------------------------
   0 B :    0.113528    0.000000
   1 H :   -0.113528   -0.000000
Sum of atomic charges       :   -0.0000000

LOEWDIN ATOMIC CHARGES AND SPIN DENSITIES
-----------------------------------------
   0 B :    0.462083    0.000000
   1 H :   -0.462083   -0.000000

  Mayer bond orders larger than 0.100000
B(  0-B ,  1-H ) :   0.8606

FINAL SINGLE POINT ENERGY       -25.233853622728

DIPOLE MOMENT
-------------
                                X             Y             Z
Electronic contribution:     -0.68074       0.00000      -0.00000
Nuclear contribution   :      1.19943       0.00000       0.00000
                        -----------------------------------------
Total Dipole Moment    :      0.51869       0.00000      -0.00000
                        -----------------------------------------
Magnitude (a.u.)       :      0.51869
Magnitude (Debye)      :      1.31839

Rotational constants in cm-1:     0.000000    10.818523    10.818523
Rotational constants in MHz :     0.000000 324331.147717 324331.147717

                             ****ORCA TERMINATED NORMALLY****
TOTAL RUN TIME: 0 days 0 hours 0 minutes 58 seconds 138 msec
