 Gaussian 16, Revision A.03,
 Gaussian 16:  ES64L-G16RevA.03 25-Dec-2016

 ----------------------------------------
 #p UHF/aug-cc-pVQZ guess=read CCSD(T,FC)
 ----------------------------------------

 ------------------------
 BH UCCSD at 2.8 Angstrom
 ------------------------
 Symbolic Z-matrix:
 Charge =  0 Multiplicity = 1

                         Standard orientation:
 ---------------------------------------------------------------------
 Center     Atomic      Atomic             Coordinates (Angstroms)
 Number     Number       Type             X           Y           Z
 ---------------------------------------------------------------------
      1          5           0        0.000000    0.000000    0.466667
      2          1           0        0.000000    0.000000   -2.333333
 ---------------------------------------------------------------------

 SCF Done:  E(UHF) =  -25.0350126640     A.U. after    1 cycles
 E2 =    -0.5008059781D-01 EUMP2 =    -0.25085093261766D+02
 CCSD(T)
 CCSD(T)= -0.25112791646D+02

 The electronic state is 1-SG.
 Alpha  occ. eigenvalues --   -7.69707  -0.49124  -0.44098
 Alpha virt. eigenvalues --    0.02505   0.02505   0.03806   0.05517   0.08097
 Alpha virt. eigenvalues --    0.08097   0.08668   0.11478   0.14460   0.14460
 Alpha virt. eigenvalues --    0.14466   0.14466   0.18749   0.24188   0.24188

  Beta  occ. eigenvalues --   -7.71072  -0.54931  -0.32159
  Beta virt. eigenvalues --    0.02159   0.02159   0.02861   0.04690   0.07481
  Beta virt. eigenvalues --    0.07481   0.08537   0.10668   0.14458   0.14458
  Beta virt. eigenvalues --    0.14484   0.14484   0.18817   0.25703   0.25703

 Mulliken charges and spin densities:
               1          2
     1  B    0.021228  -0.984222
     2  H   -0.021228   0.984222
 Sum of Mulliken charges =  -0.00000   0.00000

 Dipole moment (field-independent basis, Debye):
    X=              0.0000    Y=              0.0000    Z=              0.3268  Tot=              0.3268
 Quadrupole moment (field-independent basis, Debye-Ang):
   XX=             -7.3159   YY=             -7.3159   ZZ=            -11.3792
   XY=              0.0000   XZ=              0.0000   YZ=              0.0000

 1021827\CCSD=-25.1093134\CCSD(T)=-25.1127916\S2=0.934481\S2-1=0.907747
 Normal termination of Gaussian 16 at Sun May 22 21:14:32 2022.
