                         Program Version 5.0.0 -  RELEASE  -
|  1> ! UHF CCSD(T) aug-cc-pVQZ VeryTightSCF MOread
|  2>
|  3> %moinp "BH-2.6-UHF-O.gbw"
|  4>
|  5> *xyz 0 1
|  6>  B	0.0	0.0	0.0
|  7>  H	2.6	0.0	0.0
|  8> **                         ****END OF INPUT****

CARTESIAN COORDINATES (ANGSTROEM)
---------------------------------
  B      0.000000    0.000000    0.000000
  H      2.600000    0.000000    0.000000

 Total Charge           Charge          ....    0
 Multiplicity           Mult            ....    1
 Number of Electrons    NEL             ....    6
 Basis Dimension        Dim             ....  126

ORBITAL ENERGIES
----------------
                 SPIN UP ORBITALS
  NO   OCC          E(Eh)            E(eV)
   0   1.0000      -7.703028      -209.6101
   1   1.0000      -0.495027       -13.4704
   2   1.0000      -0.433842       -11.8054
   3   0.0000       0.024065         0.6548
   4   0.0000       0.024065         0.6548
   5   0.0000       0.036683         0.9982
   6   0.0000       0.055184         1.5016
   7   0.0000       0.079394         2.1604

                 SPIN DOWN ORBITALS
  NO   OCC          E(Eh)            E(eV)
   0   1.0000      -7.715830      -209.9584
   1   1.0000      -0.551365       -15.0034
   2   1.0000      -0.323555        -8.8044
   3   0.0000       0.020663         0.5623
   4   0.0000       0.020663         0.5623
   5   0.0000       0.030110         0.8193
   6   0.0000       0.046865         1.2753
   7   0.0000       0.073778         2.0076

E(0)                                       ...    -25.036652162
E(0)                                       ...    -25.036652162
E(CORR)                                    ...     -0.080330263
E(TOT)                                     ...    -25.116982425
E(CCSD(T))                                 ...    -25.121696263

MULLIKEN ATOMIC CHARGES AND SPIN DENSITIES
------------------------------------------
   0 B :    0.086705   -0.439108
   1 H :   -0.086705    0.439108
Sum of atomic charges       :   -0.0000000

LOEWDIN ATOMIC CHARGES AND SPIN DENSITIES
-----------------------------------------
   0 B :    0.118426   -0.322465
   1 H :   -0.118426    0.322465

  Mayer bond orders larger than 0.100000
B(  0-B ,  1-H ) :   0.5017

FINAL SINGLE POINT ENERGY       -25.121696262907

DIPOLE MOMENT
-------------
                                X             Y             Z
Electronic contribution:     -2.96070       0.00000       0.00000
Nuclear contribution   :      2.39886       0.00000       0.00000
                        -----------------------------------------
Total Dipole Moment    :     -0.56185       0.00000       0.00000
                        -----------------------------------------
Magnitude (a.u.)       :      0.56185
Magnitude (Debye)      :      1.42811

Rotational constants in cm-1:     0.000000     2.704631     2.704631
Rotational constants in MHz :     0.000000 81082.786929 81082.786929

                             ****ORCA TERMINATED NORMALLY****
TOTAL RUN TIME: 0 days 0 hours 0 minutes 58 seconds 960 msec
