                         Program Version 5.0.0 -  RELEASE  -
|  1> ! UHF CCSD(T) aug-cc-pVQZ VeryTightSCF MOread
|  2>
|  3> %moinp "BH-2.8-UHF-O.gbw"
|  4>
|  5> *xyz 0 1
|  6>  B	0.0	0.0	0.0
|  7>  H	2.8	0.0	0.0
|  8> **                         ****END OF INPUT****

CARTESIAN COORDINATES (ANGSTROEM)
---------------------------------
  B      0.000000    0.000000    0.000000
  H      2.800000    0.000000    0.000000

 Total Charge           Charge          ....    0
 Multiplicity           Mult            ....    1
 Number of Electrons    NEL             ....    6
 Basis Dimension        Dim             ....  126

ORBITAL ENERGIES
----------------
                 SPIN UP ORBITALS
  NO   OCC          E(Eh)            E(eV)
   0   1.0000      -7.697074      -209.4480
   1   1.0000      -0.491240       -13.3673
   2   1.0000      -0.440985       -11.9998
   3   0.0000       0.025045         0.6815
   4   0.0000       0.025045         0.6815
   5   0.0000       0.038057         1.0356
   6   0.0000       0.055173         1.5013
   7   0.0000       0.080965         2.2032

                 SPIN DOWN ORBITALS
  NO   OCC          E(Eh)            E(eV)
   0   1.0000      -7.710727      -209.8195
   1   1.0000      -0.549315       -14.9476
   2   1.0000      -0.321590        -8.7509
   3   0.0000       0.021586         0.5874
   4   0.0000       0.021586         0.5874
   5   0.0000       0.028612         0.7786
   6   0.0000       0.046896         1.2761
   7   0.0000       0.074813         2.0358

E(0)                                       ...    -25.035012844
E(0)                                       ...    -25.035012844
E(CORR)                                    ...     -0.074300084
E(TOT)                                     ...    -25.109312929
E(CCSD(T))                                 ...    -25.112790599

MULLIKEN ATOMIC CHARGES AND SPIN DENSITIES
------------------------------------------
   0 B :    0.058266   -0.685740
   1 H :   -0.058266    0.685740
Sum of atomic charges       :    0.0000000

LOEWDIN ATOMIC CHARGES AND SPIN DENSITIES
-----------------------------------------
   0 B :    0.074249   -0.538170
   1 H :   -0.074249    0.538170

  Mayer bond orders larger than 0.100000
B(  0-B ,  1-H ) :   0.2714

FINAL SINGLE POINT ENERGY       -25.112790598783

DIPOLE MOMENT
-------------
                                X             Y             Z
Electronic contribution:     -2.99518      -0.00000      -0.00000
Nuclear contribution   :      2.58338       0.00000       0.00000
                        -----------------------------------------
Total Dipole Moment    :     -0.41180      -0.00000      -0.00000
                        -----------------------------------------
Magnitude (a.u.)       :      0.41180
Magnitude (Debye)      :      1.04672

Rotational constants in cm-1:     0.000000     2.332054     2.332054
Rotational constants in MHz :     0.000000 69913.219342 69913.219342

                             ****ORCA TERMINATED NORMALLY****
TOTAL RUN TIME: 0 days 0 hours 1 minutes 3 seconds 229 msec
