 Gaussian 16, Revision A.03,
 Gaussian 16:  ES64L-G16RevA.03 25-Dec-2016

 ----------------------------------------
 #p UHF/aug-cc-pVQZ guess=read CCSD(T,FC)
 ----------------------------------------

 ------------------------
 BH UCCSD at 2.2 Angstrom
 ------------------------
 Symbolic Z-matrix:
 Charge =  0 Multiplicity = 1

                         Standard orientation:
 ---------------------------------------------------------------------
 Center     Atomic      Atomic             Coordinates (Angstroms)
 Number     Number       Type             X           Y           Z
 ---------------------------------------------------------------------
      1          5           0        0.000000    0.000000    0.366667
      2          1           0        0.000000    0.000000   -1.833333
 ---------------------------------------------------------------------

 SCF Done:  E(UHF) =  -25.0450981727     A.U. after    1 cycles
 E2 =    -0.5886555783D-01 EUMP2 =    -0.25103963730498D+02
 CCSD(T)
 CCSD(T)= -0.25149431568D+02

 The electronic state is 1-SG.
 Alpha  occ. eigenvalues --   -7.72363  -0.51487  -0.40328
 Alpha virt. eigenvalues --    0.02085   0.02085   0.03363   0.05474   0.07476
 Alpha virt. eigenvalues --    0.07476   0.09260   0.11520   0.14320   0.14320
 Alpha virt. eigenvalues --    0.14322   0.14322   0.19378   0.24598   0.26093

  Beta  occ. eigenvalues --   -7.73341  -0.55805  -0.33186
  Beta virt. eigenvalues --    0.01797   0.01797   0.03175   0.04820   0.07097
  Beta virt. eigenvalues --    0.07097   0.09098   0.11261   0.14271   0.14271
  Beta virt. eigenvalues --    0.14321   0.14321   0.19338   0.26500   0.27311

 Mulliken charges and spin densities:
               1          2
     1  B    0.094332  -0.844236
     2  H   -0.094332   0.844236
 Sum of Mulliken charges =  -0.00000  -0.00000

 Dipole moment (field-independent basis, Debye):
    X=              0.0000    Y=              0.0000    Z=              0.7457  Tot=              0.7457
 Quadrupole moment (field-independent basis, Debye-Ang):
   XX=             -7.3059   YY=             -7.3059   ZZ=            -12.1012
   XY=              0.0000   XZ=              0.0000   YZ=              0.0000

 5.1244847\CCSD=-25.1443029\CCSD(T)=-25.1494316\S2=0.658014\S2-1=0.5978
 Normal termination of Gaussian 16 at Sun May 22 21:09:32 2022.
