 Gaussian 16, Revision A.03,
 Gaussian 16:  ES64L-G16RevA.03 25-Dec-2016

 ----------------------------------------
 #p UHF/aug-cc-pVQZ guess=read CCSD(T,FC)
 ----------------------------------------

 ------------------------
 BH UCCSD at 3.4 Angstrom
 ------------------------
 Symbolic Z-matrix:
 Charge =  0 Multiplicity = 1

                         Standard orientation:
 ---------------------------------------------------------------------
 Center     Atomic      Atomic             Coordinates (Angstroms)
 Number     Number       Type             X           Y           Z
 ---------------------------------------------------------------------
      1          5           0        0.000000    0.000000    0.566667
      2          1           0        0.000000    0.000000   -2.833333
 ---------------------------------------------------------------------

 SCF Done:  E(UHF) =  -25.0333195152     A.U. after    1 cycles
 E2 =    -0.4803723980D-01 EUMP2 =    -0.25081356755009D+02
 CCSD(T)
 CCSD(T)= -0.25102883448D+02

 The electronic state is 1-SG.
 Alpha  occ. eigenvalues --   -7.68903  -0.49130  -0.44662
 Alpha virt. eigenvalues --    0.02654   0.02654   0.04109   0.05451   0.08179
 Alpha virt. eigenvalues --    0.08335   0.08335   0.11472   0.14358   0.14358
 Alpha virt. eigenvalues --    0.14532   0.14532   0.18616   0.22551   0.22551

  Beta  occ. eigenvalues --   -7.70382  -0.54643  -0.31941
  Beta virt. eigenvalues --    0.02300   0.02300   0.02414   0.04810   0.07649
  Beta virt. eigenvalues --    0.07649   0.08132   0.10669   0.14437   0.14437
  Beta virt. eigenvalues --    0.14529   0.14529   0.18800   0.24079   0.24079

 Mulliken charges and spin densities:
               1          2
     1  B    0.005124  -0.998693
     2  H   -0.005124   0.998693
 Sum of Mulliken charges =  -0.00000  -0.00000

 Dipole moment (field-independent basis, Debye):
    X=              0.0000    Y=              0.0000    Z=              0.1144  Tot=              0.1144
 Quadrupole moment (field-independent basis, Debye-Ang):
   XX=             -7.3127   YY=             -7.3127   ZZ=            -10.9948
   XY=              0.0000   XZ=              0.0000   YZ=              0.0000

 5.0976958\CCSD=-25.1012111\CCSD(T)=-25.1028834\S2=0.994281\S2-1=0.9809
 Normal termination of Gaussian 16 at Sun May 22 21:10:19 2022.
