                         Program Version 5.0.0 -  RELEASE  -
|  1> ! UHF aug-cc-pVQZ pal8 VeryTightSCF
|  2>
|  3> %scf
|  4> 	STABPerform	True
|  5> 	STABRestartUHFifUnstable	True
|  6> end
|  7>
|  8> *xyz 0 1
|  9>  B	0.0	0.0	0.0
| 10>  H	3.0	0.0	0.0
| 11> **                         ****END OF INPUT****

CARTESIAN COORDINATES (ANGSTROEM)
---------------------------------
  B      0.000000    0.000000    0.000000
  H      3.000000    0.000000    0.000000

 Total Charge           Charge          ....    0
 Multiplicity           Mult            ....    1
 Number of Electrons    NEL             ....    6
 Basis Dimension        Dim             ....  126

ORBITAL ENERGIES
----------------
                 SPIN UP ORBITALS
  NO   OCC          E(Eh)            E(eV)
   0   1.0000      -7.693150      -209.3413
   1   1.0000      -0.490095       -13.3362
   2   1.0000      -0.444570       -12.0974
   3   0.0000       0.025729         0.7001
   4   0.0000       0.025729         0.7001
   5   0.0000       0.039248         1.0680
   6   0.0000       0.055069         1.4985
   7   0.0000       0.082078         2.2334

                 SPIN DOWN ORBITALS
  NO   OCC          E(Eh)            E(eV)
   0   1.0000      -7.707363      -209.7280
   1   1.0000      -0.547931       -14.9100
   2   1.0000      -0.320447        -8.7198
   3   0.0000       0.022239         0.6052
   4   0.0000       0.022239         0.6052
   5   0.0000       0.027024         0.7354
   6   0.0000       0.047200         1.2844
   7   0.0000       0.075573         2.0565

MULLIKEN ATOMIC CHARGES AND SPIN POPULATIONS
--------------------------------------------
   0 B :    0.012785   -0.993127
   1 H :   -0.012785    0.993127
Sum of atomic charges         :   -0.0000000

LOEWDIN ATOMIC CHARGES AND SPIN POPULATIONS
-------------------------------------------
   0 B :    0.030697   -0.823909
   1 H :   -0.030697    0.823909

FINAL SINGLE POINT ENERGY       -25.034107166894

DIPOLE MOMENT
-------------
                                X             Y             Z
Electronic contribution:     -2.85860       0.00000      -0.00000
Nuclear contribution   :      2.76791       0.00000       0.00000
                        -----------------------------------------
Total Dipole Moment    :     -0.09069       0.00000      -0.00000
                        -----------------------------------------
Magnitude (a.u.)       :      0.09069
Magnitude (Debye)      :      0.23052

Rotational constants in cm-1:     0.000000     2.031478     2.031478
Rotational constants in MHz :     0.000000 60902.182182 60902.182182

                             ****ORCA TERMINATED NORMALLY****
TOTAL RUN TIME: 0 days 0 hours 0 minutes 13 seconds 380 msec
