 Gaussian 16, Revision A.03,
 Gaussian 16:  ES64L-G16RevA.03 25-Dec-2016

 ---------------------------------------
 #p UHF/aug-cc-pVQZ guess=mix stable=opt
 ---------------------------------------

 ----------------------
 BH UHF at 3.2 Angstrom
 ----------------------
 Symbolic Z-matrix:
 Charge =  0 Multiplicity = 1

                         Standard orientation:
 ---------------------------------------------------------------------
 Center     Atomic      Atomic             Coordinates (Angstroms)
 Number     Number       Type             X           Y           Z
 ---------------------------------------------------------------------
      1          5           0        0.000000    0.000000    0.533333
      2          1           0        0.000000    0.000000   -2.666667
 ---------------------------------------------------------------------

 SCF Done:  E(UHF) =  -24.9424650419     A.U. after   18 cycles
 SCF Done:  E(UHF) =  -25.0336027733     a.u. after   19 cycles

 The electronic state is 1-SG.
 Alpha  occ. eigenvalues --   -7.69063  -0.49040  -0.44609
 Alpha virt. eigenvalues --    0.02620   0.02620   0.04025   0.05485   0.08284
 Alpha virt. eigenvalues --    0.08284   0.08330   0.11465   0.14402   0.14402
 Alpha virt. eigenvalues --    0.14515   0.14515   0.18700   0.23061   0.23061

  Beta  occ. eigenvalues --   -7.70520  -0.54702  -0.31979
  Beta virt. eigenvalues --    0.02269   0.02269   0.02551   0.04763   0.07611
  Beta virt. eigenvalues --    0.07611   0.08257   0.10653   0.14468   0.14468
  Beta virt. eigenvalues --    0.14513   0.14513   0.18800   0.24597   0.24597

 Mulliken charges and spin densities:
               1          2
     1  B    0.008009  -0.996919
     2  H   -0.008009   0.996919
 Sum of Mulliken charges =  -0.00000  -0.00000

 Dipole moment (field-independent basis, Debye):
    X=              0.0000    Y=              0.0000    Z=              0.1620  Tot=              0.1620
 Quadrupole moment (field-independent basis, Debye-Ang):
   XX=             -7.3142   YY=             -7.3142   ZZ=            -11.0873
   XY=              0.0000   XZ=              0.0000   YZ=              0.0000

 Normal termination of Gaussian 16 at Sun May 22 21:07:35 2022.
