 Gaussian 16, Revision A.03,
 Gaussian 16:  ES64L-G16RevA.03 25-Dec-2016

 ----------------------------------------
 #p UHF/aug-cc-pVQZ guess=read CCSD(T,FC)
 ----------------------------------------

 ------------------------
 BH UCCSD at 3.6 Angstrom
 ------------------------
 Symbolic Z-matrix:
 Charge =  0 Multiplicity = 1

                         Standard orientation:
 ---------------------------------------------------------------------
 Center     Atomic      Atomic             Coordinates (Angstroms)
 Number     Number       Type             X           Y           Z
 ---------------------------------------------------------------------
      1          5           0        0.000000    0.000000    0.600000
      2          1           0        0.000000    0.000000   -3.000000
 ---------------------------------------------------------------------

 SCF Done:  E(UHF) =  -25.0331586880     A.U. after    1 cycles
 E2 =    -0.4777628095D-01 EUMP2 =    -0.25080934968992D+02
 CCSD(T)
 CCSD(T)= -0.25102076189D+02

 The electronic state is 1-SG.
 Alpha  occ. eigenvalues --   -7.68802  -0.49234  -0.44672
 Alpha virt. eigenvalues --    0.02678   0.02678   0.04179   0.05409   0.08041
 Alpha virt. eigenvalues --    0.08368   0.08368   0.11491   0.14316   0.14316
 Alpha virt. eigenvalues --    0.14544   0.14544   0.18461   0.22068   0.22068

  Beta  occ. eigenvalues --   -7.70296  -0.54605  -0.31918
  Beta virt. eigenvalues --    0.02293   0.02320   0.02320   0.04858   0.07674
  Beta virt. eigenvalues --    0.07674   0.08011   0.10692   0.14401   0.14401
  Beta virt. eigenvalues --    0.14540   0.14540   0.18747   0.23583   0.23583

 Mulliken charges and spin densities:
               1          2
     1  B    0.003255  -0.999677
     2  H   -0.003255   0.999677
 Sum of Mulliken charges =  -0.00000  -0.00000

 Dipole moment (field-independent basis, Debye):
    X=              0.0000    Y=              0.0000    Z=              0.0816  Tot=              0.0816
 Quadrupole moment (field-independent basis, Debye-Ang):
   XX=             -7.3113   YY=             -7.3113   ZZ=            -10.9267
   XY=              0.0000   XZ=              0.0000   YZ=              0.0000

 .0971849\CCSD=-25.1005116\CCSD(T)=-25.1020762\S2=1.001013\S2-1=0.98939
 Normal termination of Gaussian 16 at Sun May 22 21:15:37 2022.
