 Gaussian 16, Revision A.03,
 Gaussian 16:  ES64L-G16RevA.03 25-Dec-2016

 ----------------------------------------
 #p UHF/aug-cc-pVQZ guess=read CCSD(T,FC)
 ----------------------------------------

 ------------------------
 BH UCCSD at 4.8 Angstrom
 ------------------------
 Symbolic Z-matrix:
 Charge =  0 Multiplicity = 1

                         Standard orientation:
 ---------------------------------------------------------------------
 Center     Atomic      Atomic             Coordinates (Angstroms)
 Number     Number       Type             X           Y           Z
 ---------------------------------------------------------------------
      1          5           0        0.000000    0.000000    0.800000
      2          1           0        0.000000    0.000000   -4.000000
 ---------------------------------------------------------------------

 SCF Done:  E(UHF) =  -25.0329444796     A.U. after    1 cycles
 E2 =    -0.4730901003D-01 EUMP2 =    -0.25080253489618D+02
 CCSD(T)
 CCSD(T)= -0.25101001245D+02

 The electronic state is 1-SG.
 Alpha  occ. eigenvalues --   -7.68642  -0.49660  -0.44633
 Alpha virt. eigenvalues --    0.02733   0.02733   0.04362   0.05124   0.07468
 Alpha virt. eigenvalues --    0.08425   0.08425   0.11734   0.14224   0.14224
 Alpha virt. eigenvalues --    0.14570   0.14570   0.16467   0.19690   0.19690

  Beta  occ. eigenvalues --   -7.70156  -0.54537  -0.31882
  Beta virt. eigenvalues --    0.01836   0.02361   0.02361   0.05090   0.07304
  Beta virt. eigenvalues --    0.07727   0.07727   0.10963   0.14240   0.14240
  Beta virt. eigenvalues --    0.14563   0.14563   0.16866   0.21184   0.21184

 Mulliken charges and spin densities:
               1          2
     1  B    0.000210  -1.000281
     2  H   -0.000210   1.000281
 Sum of Mulliken charges =  -0.00000   0.00000

 Dipole moment (field-independent basis, Debye):
    X=              0.0000    Y=             -0.0000    Z=              0.0156  Tot=              0.0156
 Quadrupole moment (field-independent basis, Debye-Ang):
   XX=             -7.3063   YY=             -7.3063   ZZ=            -10.7560
   XY=             -0.0000   XZ=              0.0000   YZ=             -0.0000

 5.0963501\CCSD=-25.0995291\CCSD(T)=-25.1010012\S2=1.010844\S2-1=1.0016
 Normal termination of Gaussian 16 at Sun May 22 21:16:07 2022.
