 Gaussian 16, Revision A.03,
 Gaussian 16:  ES64L-G16RevA.03 25-Dec-2016

 ---------------------------------------
 #p UHF/aug-cc-pVQZ guess=mix stable=opt
 ---------------------------------------

 ----------------------
 BH UHF at 4.0 Angstrom
 ----------------------
 Symbolic Z-matrix:
 Charge =  0 Multiplicity = 1

                         Standard orientation:
 ---------------------------------------------------------------------
 Center     Atomic      Atomic             Coordinates (Angstroms)
 Number     Number       Type             X           Y           Z
 ---------------------------------------------------------------------
      1          5           0        0.000000    0.000000    0.666667
      2          1           0        0.000000    0.000000   -3.333333
 ---------------------------------------------------------------------

 SCF Done:  E(UHF) =  -24.9039082495     A.U. after   20 cycles
 SCF Done:  E(UHF) =  -25.0330123152     a.u. after   81 cycles

 The electronic state is 1-SG.
 Alpha  occ. eigenvalues --   -7.68699  -0.49422  -0.44658
 Alpha virt. eigenvalues --    0.02707   0.02707   0.04284   0.05309   0.07803
 Alpha virt. eigenvalues --    0.08404   0.08404   0.11554   0.14247   0.14247
 Alpha virt. eigenvalues --    0.14559   0.14559   0.17955   0.21180   0.21180

  Beta  occ. eigenvalues --   -7.70206  -0.54563  -0.31896
  Beta virt. eigenvalues --    0.02097   0.02344   0.02344   0.04946   0.07705
  Beta virt. eigenvalues --    0.07705   0.07775   0.10761   0.14327   0.14327
  Beta virt. eigenvalues --    0.14553   0.14553   0.18396   0.22668   0.22668

 Mulliken charges and spin densities:
               1          2
     1  B    0.001213  -1.000494
     2  H   -0.001213   1.000494
 Sum of Mulliken charges =  -0.00000  -0.00000

 Dipole moment (field-independent basis, Debye):
    X=              0.0000    Y=              0.0000    Z=              0.0435  Tot=              0.0435
 Quadrupole moment (field-independent basis, Debye-Ang):
   XX=             -7.3090   YY=             -7.3090   ZZ=            -10.8385
   XY=              0.0000   XZ=              0.0000   YZ=              0.0000

 Normal termination of Gaussian 16 at Sun May 22 21:10:58 2022.
