 Gaussian 16, Revision A.03,
 Gaussian 16:  ES64L-G16RevA.03 25-Dec-2016

 ---------------------------------------
 #p UHF/aug-cc-pVQZ guess=mix stable=opt
 ---------------------------------------

 ----------------------
 BH UHF at 4.4 Angstrom
 ----------------------
 Symbolic Z-matrix:
 Charge =  0 Multiplicity = 1

                         Standard orientation:
 ---------------------------------------------------------------------
 Center     Atomic      Atomic             Coordinates (Angstroms)
 Number     Number       Type             X           Y           Z
 ---------------------------------------------------------------------
      1          5           0        0.000000    0.000000    0.733333
      2          1           0        0.000000    0.000000   -3.666667
 ---------------------------------------------------------------------

 SCF Done:  E(UHF) =  -24.8909195111     A.U. after   21 cycles
 SCF Done:  E(UHF) =  -25.0329622088     a.u. after  442 cycles

 The electronic state is 1-SG.
 Alpha  occ. eigenvalues --   -7.68659  -0.49561  -0.44642
 Alpha virt. eigenvalues --    0.02724   0.02724   0.04345   0.05206   0.07616
 Alpha virt. eigenvalues --    0.08419   0.08419   0.11637   0.14208   0.14208
 Alpha virt. eigenvalues --    0.14566   0.14566   0.17269   0.20390   0.20390

  Beta  occ. eigenvalues --   -7.70171  -0.54545  -0.31887
  Beta virt. eigenvalues --    0.01949   0.02355   0.02355   0.05023   0.07540
  Beta virt. eigenvalues --    0.07720   0.07720   0.10853   0.14264   0.14264
  Beta virt. eigenvalues --    0.14559   0.14559   0.17729   0.21868   0.21868

 Mulliken charges and spin densities:
               1          2
     1  B    0.000430  -1.000507
     2  H   -0.000430   1.000507
 Sum of Mulliken charges =   0.00000   0.00000

 Dipole moment (field-independent basis, Debye):
    X=              0.0000    Y=              0.0000    Z=              0.0250  Tot=              0.0250
 Quadrupole moment (field-independent basis, Debye-Ang):
   XX=             -7.3074   YY=             -7.3074   ZZ=            -10.7874
   XY=              0.0000   XZ=              0.0000   YZ=              0.0000

 Normal termination of Gaussian 16 at Sun May 22 21:13:48 2022.
