 Gaussian 16, Revision A.03,
 Gaussian 16:  ES64L-G16RevA.03 25-Dec-2016

 ---------------------------------------
 #p UHF/aug-cc-pVQZ guess=mix stable=opt
 ---------------------------------------

 ----------------------
 BH UHF at 4.6 Angstrom
 ----------------------
 Symbolic Z-matrix:
 Charge =  0 Multiplicity = 1

                         Standard orientation:
 ---------------------------------------------------------------------
 Center     Atomic      Atomic             Coordinates (Angstroms)
 Number     Number       Type             X           Y           Z
 ---------------------------------------------------------------------
      1          5           0        0.000000    0.000000    0.766667
      2          1           0        0.000000    0.000000   -3.833333
 ---------------------------------------------------------------------

 SCF Done:  E(UHF) =  -24.8855750360     A.U. after   24 cycles
 SCF Done:  E(UHF) =  -25.0329512085     a.u. after  394 cycles

 The electronic state is 1-SG.
 Alpha  occ. eigenvalues --   -7.68649  -0.49615  -0.44637
 Alpha virt. eigenvalues --    0.02729   0.02729   0.04359   0.05161   0.07538
 Alpha virt. eigenvalues --    0.08423   0.08423   0.11684   0.14207   0.14207
 Alpha virt. eigenvalues --    0.14568   0.14568   0.16879   0.20029   0.20029

  Beta  occ. eigenvalues --   -7.70162  -0.54540  -0.31884
  Beta virt. eigenvalues --    0.01889   0.02359   0.02359   0.05058   0.07422
  Beta virt. eigenvalues --    0.07724   0.07724   0.10906   0.14245   0.14245
  Beta virt. eigenvalues --    0.14561   0.14561   0.17313   0.21512   0.21512

 Mulliken charges and spin densities:
               1          2
     1  B    0.000281  -1.000402
     2  H   -0.000281   1.000402
 Sum of Mulliken charges =  -0.00000   0.00000

 Dipole moment (field-independent basis, Debye):
    X=              0.0000    Y=              0.0000    Z=              0.0195  Tot=              0.0195
 Quadrupole moment (field-independent basis, Debye-Ang):
   XX=             -7.3068   YY=             -7.3068   ZZ=            -10.7699
   XY=              0.0000   XZ=              0.0000   YZ=              0.0000

 Normal termination of Gaussian 16 at Sun May 22 21:13:49 2022.
