                         Program Version 5.0.0 -  RELEASE  -
|  1> ! UHF CCSD(T) aug-cc-pVQZ VeryTightSCF MOread
|  2>
|  3> %moinp "BH-4.4-UHF-O.gbw"
|  4>
|  5> *xyz 0 1
|  6>  B	0.0	0.0	0.0
|  7>  H	4.4	0.0	0.0
|  8> **                         ****END OF INPUT****

CARTESIAN COORDINATES (ANGSTROEM)
---------------------------------
  B      0.000000    0.000000    0.000000
  H      4.400000    0.000000    0.000000

 Total Charge           Charge          ....    0
 Multiplicity           Mult            ....    1
 Number of Electrons    NEL             ....    6
 Basis Dimension        Dim             ....  126

ORBITAL ENERGIES
----------------
                 SPIN UP ORBITALS
  NO   OCC          E(Eh)            E(eV)
   0   1.0000      -7.701712      -209.5742
   1   1.0000      -0.545452       -14.8425
   2   1.0000      -0.318868        -8.6768
   3   0.0000       0.019492         0.5304
   4   0.0000       0.023555         0.6410
   5   0.0000       0.023555         0.6410
   6   0.0000       0.050234         1.3669
   7   0.0000       0.075399         2.0517

                 SPIN DOWN ORBITALS
  NO   OCC          E(Eh)            E(eV)
   0   1.0000      -7.686591      -209.1628
   1   1.0000      -0.495609       -13.4862
   2   1.0000      -0.446422       -12.1478
   3   0.0000       0.027236         0.7411
   4   0.0000       0.027236         0.7411
   5   0.0000       0.043452         1.1824
   6   0.0000       0.052063         1.4167
   7   0.0000       0.076160         2.0724

E(0)                                       ...    -25.032962391
E(0)                                       ...    -25.032962391
E(CORR)                                    ...     -0.066668353
E(TOT)                                     ...    -25.099630744
E(CCSD(T))                                 ...    -25.101109008

MULLIKEN ATOMIC CHARGES AND SPIN DENSITIES
------------------------------------------
   0 B :    0.000857    0.999753
   1 H :   -0.000857   -0.999753
Sum of atomic charges       :    0.0000000

LOEWDIN ATOMIC CHARGES AND SPIN DENSITIES
-----------------------------------------
   0 B :   -0.010423    0.975604
   1 H :    0.010423   -0.975604

FINAL SINGLE POINT ENERGY       -25.101109008281

DIPOLE MOMENT
-------------
                                X             Y             Z
Electronic contribution:     -4.07470       0.00000       0.00000
Nuclear contribution   :      4.05960       0.00000       0.00000
                        -----------------------------------------
Total Dipole Moment    :     -0.01510       0.00000       0.00000
                        -----------------------------------------
Magnitude (a.u.)       :      0.01510
Magnitude (Debye)      :      0.03838

Rotational constants in cm-1:     0.000000     0.944385     0.944385
Rotational constants in MHz :     0.000000 28311.964858 28311.964858

                             ****ORCA TERMINATED NORMALLY****
TOTAL RUN TIME: 0 days 0 hours 0 minutes 55 seconds 18 msec
