                         Program Version 5.0.0 -  RELEASE  -
|  1> ! UHF aug-cc-pVQZ pal8 VeryTightSCF
|  2>
|  3> %scf
|  4> 	STABPerform	True
|  5> 	STABRestartUHFifUnstable	True
|  6> end
|  7>
|  8> *xyz 0 1
|  9>  B	0.0	0.0	0.0
| 10>  H	4.8	0.0	0.0
| 11> **                         ****END OF INPUT****

CARTESIAN COORDINATES (ANGSTROEM)
---------------------------------
  B      0.000000    0.000000    0.000000
  H      4.800000    0.000000    0.000000

 Total Charge           Charge          ....    0
 Multiplicity           Mult            ....    1
 Number of Electrons    NEL             ....    6
 Basis Dimension        Dim             ....  126

ORBITAL ENERGIES
----------------
                 SPIN UP ORBITALS
  NO   OCC          E(Eh)            E(eV)
   0   1.0000      -7.701565      -209.5702
   1   1.0000      -0.545369       -14.8402
   2   1.0000      -0.318822        -8.6756
   3   0.0000       0.018364         0.4997
   4   0.0000       0.023612         0.6425
   5   0.0000       0.023612         0.6425
   6   0.0000       0.050903         1.3851
   7   0.0000       0.073037         1.9874

                 SPIN DOWN ORBITALS
  NO   OCC          E(Eh)            E(eV)
   0   1.0000      -7.686427      -209.1583
   1   1.0000      -0.496600       -13.5132
   2   1.0000      -0.446330       -12.1452
   3   0.0000       0.027333         0.7438
   4   0.0000       0.027333         0.7438
   5   0.0000       0.043616         1.1868
   6   0.0000       0.051244         1.3944
   7   0.0000       0.074676         2.0320

MULLIKEN ATOMIC CHARGES AND SPIN POPULATIONS
--------------------------------------------
   0 B :    0.000210    1.000281
   1 H :   -0.000210   -1.000281
Sum of atomic charges         :    0.0000000

LOEWDIN ATOMIC CHARGES AND SPIN POPULATIONS
-------------------------------------------
   0 B :   -0.006994    0.987445
   1 H :    0.006994   -0.987445

FINAL SINGLE POINT ENERGY       -25.032944665870

DIPOLE MOMENT
-------------
                                X             Y             Z
Electronic contribution:     -4.43480       0.00000       0.00000
Nuclear contribution   :      4.42866       0.00000       0.00000
                        -----------------------------------------
Total Dipole Moment    :     -0.00614       0.00000       0.00000
                        -----------------------------------------
Magnitude (a.u.)       :      0.00614
Magnitude (Debye)      :      0.01561

Rotational constants in cm-1:     0.000000     0.793546     0.793546
Rotational constants in MHz :     0.000000 23789.914915 23789.914915

                             ****ORCA TERMINATED NORMALLY****
TOTAL RUN TIME: 0 days 0 hours 0 minutes 11 seconds 62 msec
