                         Program Version 5.0.0 -  RELEASE  -
|  1> ! UHF aug-cc-pVQZ pal8 VeryTightSCF
|  2>
|  3> %scf
|  4> 	STABPerform	True
|  5> 	STABRestartUHFifUnstable	True
|  6> end
|  7>
|  8> *xyz 0 1
|  9>  B	0.0	0.0	0.0
| 10>  H	4.2	0.0	0.0
| 11> **                         ****END OF INPUT****

CARTESIAN COORDINATES (ANGSTROEM)
---------------------------------
  B      0.000000    0.000000    0.000000
  H      4.200000    0.000000    0.000000

 Total Charge           Charge          ....    0
 Multiplicity           Mult            ....    1
 Number of Electrons    NEL             ....    6
 Basis Dimension        Dim             ....  126

ORBITAL ENERGIES
----------------
                 SPIN UP ORBITALS
  NO   OCC          E(Eh)            E(eV)
   0   1.0000      -7.686748      -209.1671
   1   1.0000      -0.494971       -13.4688
   2   1.0000      -0.446492       -12.1497
   3   0.0000       0.027165         0.7392
   4   0.0000       0.027165         0.7392
   5   0.0000       0.043198         1.1755
   6   0.0000       0.052566         1.4304
   7   0.0000       0.077036         2.0963

                 SPIN DOWN ORBITALS
  NO   OCC          E(Eh)            E(eV)
   0   1.0000      -7.701850      -209.5780
   1   1.0000      -0.545524       -14.8445
   2   1.0000      -0.318906        -8.6779
   3   0.0000       0.020180         0.5491
   4   0.0000       0.023508         0.6397
   5   0.0000       0.023508         0.6397
   6   0.0000       0.049861         1.3568
   7   0.0000       0.076577         2.0838

MULLIKEN ATOMIC CHARGES AND SPIN POPULATIONS
--------------------------------------------
   0 B :    0.000716   -1.000558
   1 H :   -0.000716    1.000558
Sum of atomic charges         :   -0.0000000

LOEWDIN ATOMIC CHARGES AND SPIN POPULATIONS
-------------------------------------------
   0 B :   -0.012005   -0.968348
   1 H :    0.012005    0.968348

FINAL SINGLE POINT ENERGY       -25.032980936728

DIPOLE MOMENT
-------------
                                X             Y             Z
Electronic contribution:     -3.88791      -0.00000      -0.00000
Nuclear contribution   :      3.87507       0.00000       0.00000
                        -----------------------------------------
Total Dipole Moment    :     -0.01284      -0.00000      -0.00000
                        -----------------------------------------
Magnitude (a.u.)       :      0.01284
Magnitude (Debye)      :      0.03263

Rotational constants in cm-1:     0.000000     1.036468     1.036468
Rotational constants in MHz :     0.000000 31072.541930 31072.541930

                             ****ORCA TERMINATED NORMALLY****
TOTAL RUN TIME: 0 days 0 hours 0 minutes 12 seconds 788 msec
