                         Program Version 5.0.0 -  RELEASE  -
|  1> ! UHF aug-cc-pVQZ pal8 VeryTightSCF
|  2>
|  3> %scf
|  4> 	STABPerform	True
|  5> 	STABRestartUHFifUnstable	True
|  6> end
|  7>
|  8> *xyz 0 1
|  9>  B	0.0	0.0	0.0
| 10>  H	5.6	0.0	0.0
| 11> **                         ****END OF INPUT****

CARTESIAN COORDINATES (ANGSTROEM)
---------------------------------
  B      0.000000    0.000000    0.000000
  H      5.600000    0.000000    0.000000

 Total Charge           Charge          ....    0
 Multiplicity           Mult            ....    1
 Number of Electrons    NEL             ....    6
 Basis Dimension        Dim             ....  126

ORBITAL ENERGIES
----------------
                 SPIN UP ORBITALS
  NO   OCC          E(Eh)            E(eV)
   0   1.0000      -7.686328      -209.1556
   1   1.0000      -0.497838       -13.5469
   2   1.0000      -0.446260       -12.1433
   3   0.0000       0.027426         0.7463
   4   0.0000       0.027426         0.7463
   5   0.0000       0.042730         1.1627
   6   0.0000       0.050701         1.3796
   7   0.0000       0.072367         1.9692

                 SPIN DOWN ORBITALS
  NO   OCC          E(Eh)            E(eV)
   0   1.0000      -7.701475      -209.5678
   1   1.0000      -0.545311       -14.8387
   2   1.0000      -0.318781        -8.6745
   3   0.0000       0.016831         0.4580
   4   0.0000       0.023656         0.6437
   5   0.0000       0.023656         0.6437
   6   0.0000       0.052028         1.4158
   7   0.0000       0.068272         1.8578

MULLIKEN ATOMIC CHARGES AND SPIN POPULATIONS
--------------------------------------------
   0 B :    0.000108   -0.999967
   1 H :   -0.000108    0.999967
Sum of atomic charges         :   -0.0000000

LOEWDIN ATOMIC CHARGES AND SPIN POPULATIONS
-------------------------------------------
   0 B :   -0.002475   -0.996410
   1 H :    0.002475    0.996410

FINAL SINGLE POINT ENERGY       -25.032934605709

DIPOLE MOMENT
-------------
                                X             Y             Z
Electronic contribution:     -5.16968       0.00000       0.00000
Nuclear contribution   :      5.16677       0.00000       0.00000
                        -----------------------------------------
Total Dipole Moment    :     -0.00291       0.00000       0.00000
                        -----------------------------------------
Magnitude (a.u.)       :      0.00291
Magnitude (Debye)      :      0.00741

Rotational constants in cm-1:     0.000000     0.583013     0.583013
Rotational constants in MHz :     0.000000 17478.304836 17478.304836

                             ****ORCA TERMINATED NORMALLY****
TOTAL RUN TIME: 0 days 0 hours 0 minutes 10 seconds 267 msec
