                         Program Version 5.0.0 -  RELEASE  -
|  1> ! UHF aug-cc-pVQZ pal8 VeryTightSCF
|  2>
|  3> %scf
|  4> 	STABPerform	True
|  5> 	STABRestartUHFifUnstable	True
|  6> end
|  7>
|  8> *xyz 0 1
|  9>  B	0.0	0.0	0.0
| 10>  H	5.4	0.0	0.0
| 11> **                         ****END OF INPUT****

CARTESIAN COORDINATES (ANGSTROEM)
---------------------------------
  B      0.000000    0.000000    0.000000
  H      5.400000    0.000000    0.000000

 Total Charge           Charge          ....    0
 Multiplicity           Mult            ....    1
 Number of Electrons    NEL             ....    6
 Basis Dimension        Dim             ....  126

ORBITAL ENERGIES
----------------
                 SPIN UP ORBITALS
  NO   OCC          E(Eh)            E(eV)
   0   1.0000      -7.686340      -209.1559
   1   1.0000      -0.497595       -13.5402
   2   1.0000      -0.446269       -12.1436
   3   0.0000       0.027411         0.7459
   4   0.0000       0.027411         0.7459
   5   0.0000       0.043066         1.1719
   6   0.0000       0.050720         1.3802
   7   0.0000       0.072880         1.9832

                 SPIN DOWN ORBITALS
  NO   OCC          E(Eh)            E(eV)
   0   1.0000      -7.701486      -209.5681
   1   1.0000      -0.545319       -14.8389
   2   1.0000      -0.318788        -8.6747
   3   0.0000       0.017144         0.4665
   4   0.0000       0.023650         0.6435
   5   0.0000       0.023650         0.6435
   6   0.0000       0.051766         1.4086
   7   0.0000       0.069471         1.8904

MULLIKEN ATOMIC CHARGES AND SPIN POPULATIONS
--------------------------------------------
   0 B :    0.000132   -1.000011
   1 H :   -0.000132    1.000011
Sum of atomic charges         :   -0.0000000

LOEWDIN ATOMIC CHARGES AND SPIN POPULATIONS
-------------------------------------------
   0 B :   -0.003265   -0.995077
   1 H :    0.003265    0.995077

FINAL SINGLE POINT ENERGY       -25.032935730754

DIPOLE MOMENT
-------------
                                X             Y             Z
Electronic contribution:     -4.98569      -0.00000       0.00000
Nuclear contribution   :      4.98224       0.00000       0.00000
                        -----------------------------------------
Total Dipole Moment    :     -0.00346      -0.00000       0.00000
                        -----------------------------------------
Magnitude (a.u.)       :      0.00346
Magnitude (Debye)      :      0.00878

Rotational constants in cm-1:     0.000000     0.626999     0.626999
Rotational constants in MHz :     0.000000 18796.969809 18796.969809

                             ****ORCA TERMINATED NORMALLY****
TOTAL RUN TIME: 0 days 0 hours 0 minutes 11 seconds 174 msec
