                         Program Version 5.0.0 -  RELEASE  -
|  1> ! UHF aug-cc-pVQZ pal8 VeryTightSCF
|  2>
|  3> %scf
|  4> 	STABPerform	True
|  5> 	STABRestartUHFifUnstable	True
|  6> end
|  7>
|  8> *xyz 0 1
|  9>  B	0.0	0.0	0.0
| 10>  H	6.0	0.0	0.0
| 11> **                         ****END OF INPUT****

CARTESIAN COORDINATES (ANGSTROEM)
---------------------------------
  B      0.000000    0.000000    0.000000
  H      6.000000    0.000000    0.000000

 Total Charge           Charge          ....    0
 Multiplicity           Mult            ....    1
 Number of Electrons    NEL             ....    6
 Basis Dimension        Dim             ....  126

ORBITAL ENERGIES
----------------
                 SPIN UP ORBITALS
  NO   OCC          E(Eh)            E(eV)
   0   1.0000      -7.686315      -209.1553
   1   1.0000      -0.498233       -13.5576
   2   1.0000      -0.446248       -12.1430
   3   0.0000       0.027448         0.7469
   4   0.0000       0.027448         0.7469
   5   0.0000       0.041916         1.1406
   6   0.0000       0.050792         1.3821
   7   0.0000       0.071435         1.9439

                 SPIN DOWN ORBITALS
  NO   OCC          E(Eh)            E(eV)
   0   1.0000      -7.701463      -209.5675
   1   1.0000      -0.545301       -14.8384
   2   1.0000      -0.318772        -8.6742
   3   0.0000       0.016303         0.4436
   4   0.0000       0.023664         0.6439
   5   0.0000       0.023664         0.6439
   6   0.0000       0.052516         1.4290
   7   0.0000       0.065876         1.7926

MULLIKEN ATOMIC CHARGES AND SPIN POPULATIONS
--------------------------------------------
   0 B :    0.000060   -0.999930
   1 H :   -0.000060    0.999930
Sum of atomic charges         :    0.0000000

LOEWDIN ATOMIC CHARGES AND SPIN POPULATIONS
-------------------------------------------
   0 B :   -0.001389   -0.998114
   1 H :    0.001389    0.998114

FINAL SINGLE POINT ENERGY       -25.032933596653

DIPOLE MOMENT
-------------
                                X             Y             Z
Electronic contribution:     -5.53794       0.00000      -0.00000
Nuclear contribution   :      5.53582       0.00000       0.00000
                        -----------------------------------------
Total Dipole Moment    :     -0.00212       0.00000      -0.00000
                        -----------------------------------------
Magnitude (a.u.)       :      0.00212
Magnitude (Debye)      :      0.00539

Rotational constants in cm-1:     0.000000     0.507870     0.507870
Rotational constants in MHz :     0.000000 15225.545546 15225.545546

                             ****ORCA TERMINATED NORMALLY****
TOTAL RUN TIME: 0 days 0 hours 0 minutes 9 seconds 173 msec
