                         Program Version 5.0.0 -  RELEASE  -
|  1> ! ROHF cc-pVDZ pal8
|  2>
|  3> *xyz 0 3
|  4>   C     -3.693788    1.345950   -0.080153
|  5>   C     -2.193484    1.373788   -0.056812
|  6>   H     -4.225508    1.180088   -1.010334
|  7>   H     -4.255204    1.224048    0.839301
|  8>   C     -1.554416   -0.023401   -0.016100
|  9>   H     -1.824927    1.905707   -0.939850
| 10>   H     -1.852812    1.944021    0.813355
| 11>   C     -0.027056    0.014500    0.007320
| 12>   H     -1.919913   -0.559214    0.866609
| 13>   H     -1.893486   -0.598246   -0.884715
| 14>   H      0.334747    0.551752   -0.877315
| 15>   H      0.305045    0.594496    0.874340
| 16>   C      0.609304   -1.374514    0.044919
| 17>   H      0.262703   -1.951369   -0.819054
| 18>   H      0.259278   -1.912060    0.933203
| 19>   C      2.147820   -1.364759    0.037560
| 20>   H      2.493149   -2.399801   -0.057561
| 21>   H      2.498336   -0.839762   -0.856087
| 22>   C      2.771544   -0.752033    1.258758
| 23>   H      3.140055    0.266294    1.257206
| 24>   H      2.687753   -1.251260    2.218099
| 25> *
| 26>
| 27>                          ****END OF INPUT****

CARTESIAN COORDINATES (ANGSTROEM)
---------------------------------
  C     -3.693788    1.345950   -0.080153
  C     -2.193484    1.373788   -0.056812
  H     -4.225508    1.180088   -1.010334
  H     -4.255204    1.224048    0.839301
  C     -1.554416   -0.023401   -0.016100
  H     -1.824927    1.905707   -0.939850
  H     -1.852812    1.944021    0.813355
  C     -0.027056    0.014500    0.007320
  H     -1.919913   -0.559214    0.866609
  H     -1.893486   -0.598246   -0.884715
  H      0.334747    0.551752   -0.877315
  H      0.305045    0.594496    0.874340
  C      0.609304   -1.374514    0.044919
  H      0.262703   -1.951369   -0.819054
  H      0.259278   -1.912060    0.933203
  C      2.147820   -1.364759    0.037560
  H      2.493149   -2.399801   -0.057561
  H      2.498336   -0.839762   -0.856087
  C      2.771544   -0.752033    1.258758
  H      3.140055    0.266294    1.257206
  H      2.687753   -1.251260    2.218099

 Total Charge           Charge          ....    0
 Multiplicity           Mult            ....    3
 Number of Electrons    NEL             ....   56
 Basis Dimension        Dim             ....  168

ORBITAL ENERGIES
----------------

  NO   OCC          E(Eh)            E(eV)
   0   2.0000     -11.227021      -305.5028
   1   2.0000     -11.225959      -305.4739
   2   2.0000     -11.221885      -305.3630
   3   2.0000     -11.221040      -305.3400
   4   2.0000     -11.220859      -305.3351
   5   2.0000     -11.220595      -305.3279
   6   2.0000     -11.218739      -305.2774
   7   2.0000      -1.089668       -29.6514
   8   2.0000      -1.045925       -28.4611
   9   2.0000      -0.975391       -26.5417
  10   2.0000      -0.892375       -24.2828
  11   2.0000      -0.824977       -22.4488
  12   2.0000      -0.782836       -21.3020
  13   2.0000      -0.769155       -20.9298
  14   2.0000      -0.651274       -17.7221
  15   2.0000      -0.622586       -16.9414
  16   2.0000      -0.602247       -16.3880
  17   2.0000      -0.573857       -15.6154
  18   2.0000      -0.556996       -15.1566
  19   2.0000      -0.549584       -14.9549
  20   2.0000      -0.527383       -14.3508
  21   2.0000      -0.505253       -13.7486
  22   2.0000      -0.488885       -13.3032
  23   2.0000      -0.470510       -12.8032
  24   2.0000      -0.459748       -12.5104
  25   2.0000      -0.458824       -12.4852
  26   2.0000      -0.454072       -12.3559
  27   1.0000      -0.356065        -9.6890
  28   1.0000      -0.352184        -9.5834
  29   0.0000       0.184524         5.0212
  30   0.0000       0.195443         5.3183
  31   0.0000       0.206046         5.6068
  32   0.0000       0.207566         5.6482
  33   0.0000       0.224559         6.1106

MULLIKEN ATOMIC CHARGES AND SPIN POPULATIONS
--------------------------------------------
   0 C :   -0.092983    0.960252
   1 C :   -0.049384    0.001398
   2 H :    0.047764    0.006410
   3 H :    0.047868    0.006410
   4 C :   -0.055979    0.011728
   5 H :    0.029567    0.003464
   6 H :    0.029838    0.003440
   7 C :   -0.057593    0.004590
   8 H :    0.023095    0.001451
   9 H :    0.022482    0.001513
  10 H :    0.019866    0.000393
  11 H :    0.026554    0.002185
  12 C :   -0.048834    0.012588
  13 H :    0.021091    0.002351
  14 H :    0.021341    0.000932
  15 C :   -0.033936    0.001810
  16 H :    0.031015    0.008110
  17 H :    0.027851    0.000890
  18 C :   -0.107446    0.957425
  19 H :    0.050972    0.006464
  20 H :    0.046850    0.006198
Sum of atomic charges         :   -0.0000000

LOEWDIN ATOMIC CHARGES AND SPIN POPULATIONS
-------------------------------------------
   0 C :    0.001374    0.873511
   1 C :   -0.056929    0.036336
   2 H :    0.005557    0.024457
   3 H :    0.005604    0.024460
   4 C :   -0.031421    0.024525
   5 H :    0.021868    0.004633
   6 H :    0.021964    0.004594
   7 C :   -0.035224    0.005579
   8 H :    0.016173    0.001651
   9 H :    0.015745    0.001806
  10 H :    0.015588    0.000285
  11 H :    0.015801    0.003043
  12 C :   -0.030700    0.022064
  13 H :    0.017482    0.002389
  14 H :    0.015927    0.001365
  15 C :   -0.056366    0.036813
  16 H :    0.025350    0.010512
  17 H :    0.021482    0.001311
  18 C :   -0.000268    0.871742
  19 H :    0.005855    0.024803
  20 H :    0.005138    0.024121

  Mayer bond orders larger than 0.100000
B(  0-C ,  1-C ) :   1.0729 B(  0-C ,  2-H ) :   0.9844 B(  0-C ,  3-H ) :   0.9844
B(  1-C ,  4-C ) :   1.0412 B(  1-C ,  5-H ) :   0.9644 B(  1-C ,  6-H ) :   0.9644
B(  4-C ,  7-C ) :   1.0566 B(  4-C ,  8-H ) :   0.9632 B(  4-C ,  9-H ) :   0.9635
B(  7-C , 10-H ) :   0.9620 B(  7-C , 11-H ) :   0.9610 B(  7-C , 12-C ) :   1.0425
B( 12-C , 13-H ) :   0.9657 B( 12-C , 14-H ) :   0.9631 B( 12-C , 15-C ) :   1.0595
B( 15-C , 16-H ) :   0.9678 B( 15-C , 17-H ) :   0.9655 B( 15-C , 18-C ) :   1.0550
B( 18-C , 19-H ) :   0.9864 B( 18-C , 20-H ) :   0.9852

FINAL SINGLE POINT ENERGY      -273.149889273128

DIPOLE MOMENT
-------------
                                X             Y             Z
Electronic contribution:      0.09372       0.14251      -0.00351
Nuclear contribution   :     -0.08888      -0.22844      -0.02714
                        -----------------------------------------
Total Dipole Moment    :      0.00485      -0.08593      -0.03065
                        -----------------------------------------
Magnitude (a.u.)       :      0.09136
Magnitude (Debye)      :      0.23222

Rotational constants in cm-1:     0.281333     0.028707     0.027530
Rotational constants in MHz :  8434.155340   860.619249   825.340837

                             ****ORCA TERMINATED NORMALLY****
TOTAL RUN TIME: 0 days 0 hours 0 minutes 7 seconds 758 msec
