                         Program Version 5.0.0 -  RELEASE  -
|  1> ! RKS B3LYP/G def2-SVP miniprint pal8
|  2>
|  3> %TDDFT
|  4>     NRoots      18
|  5>     TDA         false
|  6>     printlevel  3
|  7> end
|  8>
|  9> # benzeneDimer TDDFT
| 10>
| 11> *xyz 0 1
| 12>  C    0.275339664905    -0.458399102833    2.743143403700
| 13>  C    1.279006847437    0.228940885018    2.053971964849
| 14>  C    0.939622874510    1.231612429254    1.139882080053
| 15>  C    -0.402424351875    1.548739845978    0.916642984919
| 16>  C    -1.406698760230    0.863818487970    1.607817662361
| 17>  C    -1.068977646094    -0.140122820687    2.520286918876
| 18>  H    0.539603706561    -1.241898862747    3.454437267994
| 19>  H    2.326588004763    -0.022157300550    2.223964486000
| 20>  H    1.720832792185    1.755051800886    0.589301977320
| 21>  H    -0.666403863041    2.316697890287    0.190217604195
| 22>  H    -2.454419062639    1.106539982179    1.427829033755
| 23>  H    -1.852402130973    -0.676071740128    3.057547529767
| 24>  C    0.408637071405    -1.547138908805    -0.917226197790
| 25>  C    1.408439887136    -0.859383018412    -1.612070091004
| 26>  C    1.064503595865    0.142964356786    -2.523961075999
| 27>  C    -0.281557623713    0.456819421173    -2.742536095802
| 28>  C    -1.280735610329    -0.233330090254    -2.049663508775
| 29>  C    -0.935147882928    -1.234436127477    -1.136182768651
| 30>  H    0.677439446996    -2.313917010173    -0.191321675612
| 31>  H    2.457518043610    -1.098728344182    -1.435489418777
| 32>  H    1.844432727521    0.681106942624    -3.064104221734
| 33>  H    -0.550678756658    1.239051458125    -3.453403954344
| 34>  H    -2.329668169039    0.014352845763    -2.216299435382
| 35>  H    -1.712850805428    -1.760113019904    -0.582784469921
| 36> *
| 37>
| 38>                          ****END OF INPUT****

CARTESIAN COORDINATES (ANGSTROEM)
---------------------------------
  C      0.275340   -0.458399    2.743143
  C      1.279007    0.228941    2.053972
  C      0.939623    1.231612    1.139882
  C     -0.402424    1.548740    0.916643
  C     -1.406699    0.863818    1.607818
  C     -1.068978   -0.140123    2.520287
  H      0.539604   -1.241899    3.454437
  H      2.326588   -0.022157    2.223964
  H      1.720833    1.755052    0.589302
  H     -0.666404    2.316698    0.190218
  H     -2.454419    1.106540    1.427829
  H     -1.852402   -0.676072    3.057548
  C      0.408637   -1.547139   -0.917226
  C      1.408440   -0.859383   -1.612070
  C      1.064504    0.142964   -2.523961
  C     -0.281558    0.456819   -2.742536
  C     -1.280736   -0.233330   -2.049664
  C     -0.935148   -1.234436   -1.136183
  H      0.677439   -2.313917   -0.191322
  H      2.457518   -1.098728   -1.435489
  H      1.844433    0.681107   -3.064104
  H     -0.550679    1.239051   -3.453404
  H     -2.329668    0.014353   -2.216299
  H     -1.712851   -1.760113   -0.582784

ORBITAL ENERGIES
----------------

  NO   OCC          E(Eh)            E(eV)
   0   2.0000     -10.187908      -277.2271
   1   2.0000     -10.187893      -277.2267
   2   2.0000     -10.187547      -277.2172
   3   2.0000     -10.187536      -277.2170
   4   2.0000     -10.187137      -277.2061
   5   2.0000     -10.187125      -277.2058
   6   2.0000     -10.186997      -277.2023
   7   2.0000     -10.186990      -277.2021
   8   2.0000     -10.186088      -277.1776
   9   2.0000     -10.186024      -277.1758
  10   2.0000     -10.185523      -277.1622
  11   2.0000     -10.185516      -277.1620
  12   2.0000      -0.842906       -22.9366
  13   2.0000      -0.839622       -22.8473
  14   2.0000      -0.734894       -19.9975
  15   2.0000      -0.733397       -19.9567
  16   2.0000      -0.733251       -19.9528
  17   2.0000      -0.732101       -19.9215
  18   2.0000      -0.593461       -16.1489
  19   2.0000      -0.593257       -16.1433
  20   2.0000      -0.593226       -16.1425
  21   2.0000      -0.592960       -16.1353
  22   2.0000      -0.518747       -14.1158
  23   2.0000      -0.517580       -14.0841
  24   2.0000      -0.453763       -12.3475
  25   2.0000      -0.453536       -12.3413
  26   2.0000      -0.444506       -12.0956
  27   2.0000      -0.444135       -12.0855
  28   2.0000      -0.419224       -11.4077
  29   2.0000      -0.418489       -11.3877
  30   2.0000      -0.418357       -11.3841
  31   2.0000      -0.417867       -11.3707
  32   2.0000      -0.375901       -10.2288
  33   2.0000      -0.352425        -9.5900
  34   2.0000      -0.342773        -9.3273
  35   2.0000      -0.342738        -9.3264
  36   2.0000      -0.342601        -9.3227
  37   2.0000      -0.342492        -9.3197
  38   2.0000      -0.261519        -7.1163
  39   2.0000      -0.250914        -6.8277
  40   2.0000      -0.250890        -6.8271
  41   2.0000      -0.242222        -6.5912
  42   0.0000      -0.006836        -0.1860
  43   0.0000      -0.005280        -0.1437
  44   0.0000      -0.004690        -0.1276
  45   0.0000      -0.003487        -0.0949
  46   0.0000       0.051185         1.3928

Total SCF time: 0 days 0 hours 0 min 13 sec

-----------------------------------------------------------------------------
         ABSORPTION SPECTRUM VIA TRANSITION ELECTRIC DIPOLE MOMENTS
-----------------------------------------------------------------------------
State   Energy    Wavelength  fosc         T2        TX        TY        TZ
        (cm-1)      (nm)                 (au**2)    (au)      (au)      (au)
-----------------------------------------------------------------------------
   1   43514.2    229.8   0.000000009   0.00000   0.00024   0.00007   0.00009
   2   43656.1    229.1   0.002679403   0.02021   0.01676  -0.02186  -0.13945
   3   47398.2    211.0   0.000002254   0.00002  -0.00050   0.00034  -0.00391
   4   47558.4    210.3   0.011941109   0.08266  -0.18987   0.03388  -0.21322
   5   48115.6    207.8   0.000005917   0.00004  -0.00100   0.00627  -0.00038
   6   48152.3    207.7   0.002760684   0.01887   0.00889  -0.13657   0.01204
   7   48214.2    207.4   0.000003313   0.00002   0.00162  -0.00325   0.00307
   8   48285.6    207.1   0.000614622   0.00419   0.02584  -0.01724   0.05679
   9   48696.3    205.4   0.000004702   0.00003   0.00307  -0.00079  -0.00466
  10   48996.6    204.1   0.068411711   0.45966  -0.11985   0.04952   0.66547
  11   50774.0    197.0   0.009812307   0.06362   0.07359  -0.01781   0.24060
  12   50795.4    196.9   0.000000310   0.00000   0.00114  -0.00045   0.00071
  13   56284.9    177.7   0.000000004   0.00000  -0.00002  -0.00012  -0.00010
  14   57298.4    174.5   0.000000278   0.00000  -0.00031  -0.00114  -0.00044
  15   57579.0    173.7   0.000000026   0.00000  -0.00026   0.00022  -0.00018
  16   59020.3    169.4   0.187585354   1.04634   0.20586   0.66003  -0.75387
  17   59139.8    169.1   0.000005613   0.00003   0.00064   0.00356  -0.00426
  18   59399.3    168.4   0.801688178   4.44324  -0.38876  -1.48788   1.44163

FINAL SINGLE POINT ENERGY      -463.968218334602

DIPOLE MOMENT
-------------
                                X             Y             Z
Electronic contribution:      0.00003       0.00021       0.00030
Nuclear contribution   :     -0.00001      -0.00015      -0.00018
                        -----------------------------------------
Total Dipole Moment    :      0.00001       0.00006       0.00011
                        -----------------------------------------
Magnitude (a.u.)       :      0.00013
Magnitude (Debye)      :      0.00033

Rotational constants in cm-1:     0.054384     0.022519     0.021201
Rotational constants in MHz :  1630.400814   675.100582   635.582701

                             ****ORCA TERMINATED NORMALLY****
TOTAL RUN TIME: 0 days 0 hours 0 minutes 50 seconds 850 msec
