                         Program Version 5.0.0 -  RELEASE  -
|  1> ! RKS B3LYP/G def2-SVP miniprint pal8
|  2>
|  3> %TDDFT
|  4>     NRoots      18
|  5>     TDA         True
|  6>     Printlevel  3
|  7> end
|  8>
|  9> *xyz 0 1
| 10>  C    0.275339664905    -0.458399102833    2.743143403700
| 11>  C    1.279006847437    0.228940885018    2.053971964849
| 12>  C    0.939622874510    1.231612429254    1.139882080053
| 13>  C    -0.402424351875    1.548739845978    0.916642984919
| 14>  C    -1.406698760230    0.863818487970    1.607817662361
| 15>  C    -1.068977646094    -0.140122820687    2.520286918876
| 16>  H    0.539603706561    -1.241898862747    3.454437267994
| 17>  H    2.326588004763    -0.022157300550    2.223964486000
| 18>  H    1.720832792185    1.755051800886    0.589301977320
| 19>  H    -0.666403863041    2.316697890287    0.190217604195
| 20>  H    -2.454419062639    1.106539982179    1.427829033755
| 21>  H    -1.852402130973    -0.676071740128    3.057547529767
| 22>  C    0.408637071405    -1.547138908805    -0.917226197790
| 23>  C    1.408439887136    -0.859383018412    -1.612070091004
| 24>  C    1.064503595865    0.142964356786    -2.523961075999
| 25>  C    -0.281557623713    0.456819421173    -2.742536095802
| 26>  C    -1.280735610329    -0.233330090254    -2.049663508775
| 27>  C    -0.935147882928    -1.234436127477    -1.136182768651
| 28>  H    0.677439446996    -2.313917010173    -0.191321675612
| 29>  H    2.457518043610    -1.098728344182    -1.435489418777
| 30>  H    1.844432727521    0.681106942624    -3.064104221734
| 31>  H    -0.550678756658    1.239051458125    -3.453403954344
| 32>  H    -2.329668169039    0.014352845763    -2.216299435382
| 33>  H    -1.712850805428    -1.760113019904    -0.582784469921
| 34> *
| 35>
| 36>                          ****END OF INPUT****

CARTESIAN COORDINATES (ANGSTROEM)
---------------------------------
  C      0.275340   -0.458399    2.743143
  C      1.279007    0.228941    2.053972
  C      0.939623    1.231612    1.139882
  C     -0.402424    1.548740    0.916643
  C     -1.406699    0.863818    1.607818
  C     -1.068978   -0.140123    2.520287
  H      0.539604   -1.241899    3.454437
  H      2.326588   -0.022157    2.223964
  H      1.720833    1.755052    0.589302
  H     -0.666404    2.316698    0.190218
  H     -2.454419    1.106540    1.427829
  H     -1.852402   -0.676072    3.057548
  C      0.408637   -1.547139   -0.917226
  C      1.408440   -0.859383   -1.612070
  C      1.064504    0.142964   -2.523961
  C     -0.281558    0.456819   -2.742536
  C     -1.280736   -0.233330   -2.049664
  C     -0.935148   -1.234436   -1.136183
  H      0.677439   -2.313917   -0.191322
  H      2.457518   -1.098728   -1.435489
  H      1.844433    0.681107   -3.064104
  H     -0.550679    1.239051   -3.453404
  H     -2.329668    0.014353   -2.216299
  H     -1.712851   -1.760113   -0.582784

ORBITAL ENERGIES
----------------

  NO   OCC          E(Eh)            E(eV)
   0   2.0000     -10.187908      -277.2271
   1   2.0000     -10.187893      -277.2267
   2   2.0000     -10.187547      -277.2172
   3   2.0000     -10.187536      -277.2170
   4   2.0000     -10.187137      -277.2061
   5   2.0000     -10.187125      -277.2058
   6   2.0000     -10.186997      -277.2023
   7   2.0000     -10.186990      -277.2021
   8   2.0000     -10.186088      -277.1776
   9   2.0000     -10.186024      -277.1758
  10   2.0000     -10.185523      -277.1622
  11   2.0000     -10.185516      -277.1620
  12   2.0000      -0.842906       -22.9366
  13   2.0000      -0.839622       -22.8473
  14   2.0000      -0.734894       -19.9975
  15   2.0000      -0.733397       -19.9567
  16   2.0000      -0.733251       -19.9528
  17   2.0000      -0.732101       -19.9215
  18   2.0000      -0.593461       -16.1489
  19   2.0000      -0.593257       -16.1433
  20   2.0000      -0.593226       -16.1425
  21   2.0000      -0.592960       -16.1353
  22   2.0000      -0.518747       -14.1158
  23   2.0000      -0.517580       -14.0841
  24   2.0000      -0.453763       -12.3475
  25   2.0000      -0.453536       -12.3413
  26   2.0000      -0.444506       -12.0956
  27   2.0000      -0.444135       -12.0855
  28   2.0000      -0.419224       -11.4077
  29   2.0000      -0.418489       -11.3877
  30   2.0000      -0.418357       -11.3841
  31   2.0000      -0.417867       -11.3707
  32   2.0000      -0.375901       -10.2288
  33   2.0000      -0.352425        -9.5900
  34   2.0000      -0.342773        -9.3273
  35   2.0000      -0.342738        -9.3264
  36   2.0000      -0.342601        -9.3227
  37   2.0000      -0.342492        -9.3197
  38   2.0000      -0.261519        -7.1163
  39   2.0000      -0.250914        -6.8277
  40   2.0000      -0.250890        -6.8271
  41   2.0000      -0.242222        -6.5912
  42   0.0000      -0.006836        -0.1860
  43   0.0000      -0.005280        -0.1437
  44   0.0000      -0.004690        -0.1276
  45   0.0000      -0.003487        -0.0949
  46   0.0000       0.051185         1.3928

Total SCF time: 0 days 0 hours 0 min 12 sec

-----------------------------------------------------------------------------
         ABSORPTION SPECTRUM VIA TRANSITION ELECTRIC DIPOLE MOMENTS
-----------------------------------------------------------------------------
State   Energy    Wavelength  fosc         T2        TX        TY        TZ
        (cm-1)      (nm)                 (au**2)    (au)      (au)      (au)
-----------------------------------------------------------------------------
   1   43701.3    228.8   0.000000009   0.00000   0.00024   0.00007   0.00010
   2   43850.0    228.1   0.003007431   0.02258   0.01729  -0.02641  -0.14691
   3   47830.3    209.1   0.000003046   0.00002  -0.00102   0.00037  -0.00445
   4   47945.6    208.6   0.009502135   0.06525   0.17375  -0.02152   0.18599
   5   48142.5    207.7   0.000003071   0.00002  -0.00118   0.00433   0.00092
   6   48190.9    207.5   0.002360668   0.01613   0.00908  -0.12361  -0.02767
   7   48221.8    207.4   0.000005537   0.00004  -0.00178   0.00581  -0.00092
   8   48321.4    206.9   0.000656272   0.00447  -0.03163   0.02242  -0.05448
   9   48846.8    204.7   0.000006595   0.00004   0.00233  -0.00117  -0.00614
  10   49129.9    203.5   0.071774076   0.48095  -0.07707   0.09256   0.68296
  11   52441.3    190.7   0.002956643   0.01856   0.01450   0.00755   0.13525
  12   52473.0    190.6   0.000000017   0.00000   0.00004  -0.00030  -0.00011
  13   57369.7    174.3   0.000000004   0.00000   0.00006  -0.00013  -0.00005
  14   59112.4    169.2   0.002479243   0.01381  -0.01473  -0.00332   0.11653
  15   59124.7    169.1   0.000004736   0.00003   0.00047  -0.00022  -0.00511
  16   60379.1    165.6   0.000045692   0.00025   0.01322  -0.00487   0.00711
  17   60467.9    165.4   0.000000016   0.00000   0.00021   0.00019   0.00008
  18   61598.2    162.3   0.000000643   0.00000  -0.00014  -0.00011  -0.00185

FINAL SINGLE POINT ENERGY      -463.967365826813

DIPOLE MOMENT
-------------
                                X             Y             Z
Electronic contribution:      0.00003       0.00021       0.00030
Nuclear contribution   :     -0.00001      -0.00015      -0.00018
                        -----------------------------------------
Total Dipole Moment    :      0.00001       0.00006       0.00011
                        -----------------------------------------
Magnitude (a.u.)       :      0.00013
Magnitude (Debye)      :      0.00033

Rotational constants in cm-1:     0.054384     0.022519     0.021201
Rotational constants in MHz :  1630.400814   675.100582   635.582701

                             ****ORCA TERMINATED NORMALLY****
TOTAL RUN TIME: 0 days 0 hours 0 minutes 29 seconds 27 msec
