 Gaussian 16, Revision A.03,
 Gaussian 16:  ES64L-G16RevA.03 25-Dec-2016

 -----------------------------------------
 #p TD=(Triplet,nstates=18) RB3LYP/def2SVP
 -----------------------------------------

 ------------------
 benzeneDimer TDDFT
 ------------------
 Symbolic Z-matrix:
 Charge =  0 Multiplicity = 1

                         Standard orientation:
 ---------------------------------------------------------------------
 Center     Atomic      Atomic             Coordinates (Angstroms)
 Number     Number       Type             X           Y           Z
 ---------------------------------------------------------------------
      1          6           0       -2.647475   -0.543473   -0.711521
      2          6           0       -1.987044   -1.387011    0.186820
      3          6           0       -1.221108   -0.843604    1.223230
      4          6           0       -1.117423    0.542470    1.363026
      5          6           0       -1.780165    1.386791    0.466754
      6          6           0       -2.544441    0.844973   -0.570969
      7          1           0       -3.243081   -0.966949   -1.521192
      8          1           0       -2.063328   -2.469128    0.074672
      9          1           0       -0.691644   -1.500704    1.912652
     10          1           0       -0.504946    0.964659    2.159121
     11          1           0       -1.692981    2.468643    0.571744
     12          1           0       -3.059341    1.503536   -1.271552
     13          6           0        1.118192   -0.548339   -1.360487
     14          6           0        1.783966   -1.387572   -0.461680
     15          6           0        2.547491   -0.839882    0.573502
     16          6           0        2.646706    0.549349    0.708982
     17          6           0        1.983209    1.387783   -0.191870
     18          6           0        1.218059    0.838514   -1.225765
     19          1           0        0.506377   -0.975086   -2.154659
     20          1           0        1.699837   -2.470039   -0.562778
     21          1           0        3.064778   -1.494471    1.276047
     22          1           0        3.241754    0.977412    1.516649
     23          1           0        2.056495    2.470507   -0.083646
     24          1           0        0.686277    1.491627   -1.917184
 ---------------------------------------------------------------------

 SCF Done:  E(RB3LYP) =  -464.165941156     A.U. after   12 cycles

 Excitation energies and oscillator strengths:

 Excited State   1:      Triplet-A      3.7490 eV  330.71 nm  f=0.0000  <S**2>=2.000
      39 -> 43         0.22714
      39 -> 45        -0.21719
      40 -> 43         0.19927
      40 -> 44        -0.11547
      40 -> 45         0.19491
      40 -> 46         0.18114
      41 -> 43         0.15101
      41 -> 44         0.14478
      41 -> 45         0.15490
      41 -> 46        -0.23316
      42 -> 44         0.34359
      42 -> 46         0.20606
 This state for optimization and/or second-order correction.
 Total Energy, E(TD-HF/TD-DFT) =  -464.028168555
 Copying the excited state density for this state as the 1-particle RhoCI density.

 Excited State   2:      Triplet-A      3.7572 eV  329.99 nm  f=0.0000  <S**2>=2.000
      39 -> 44         0.26942
      39 -> 46         0.16464
      40 -> 43         0.15294
      40 -> 44        -0.14411
      40 -> 45         0.14731
      40 -> 46         0.23037
      41 -> 43        -0.19602
      41 -> 44        -0.10861
      41 -> 45        -0.19802
      41 -> 46         0.17819
      42 -> 43         0.29675
      42 -> 45        -0.27692

 Excited State   3:      Triplet-A      4.6987 eV  263.87 nm  f=0.0000  <S**2>=2.000
      39 -> 46         0.24616
      40 -> 44         0.25744
      40 -> 45        -0.20488
      40 -> 46        -0.11315
      41 -> 44         0.19103
      41 -> 45         0.27388
      42 -> 43         0.43090

 Excited State   4:      Triplet-A      4.7036 eV  263.59 nm  f=0.0000  <S**2>=2.000
      39 -> 45        -0.27094
      40 -> 43        -0.28553
      40 -> 46        -0.20898
      41 -> 43        -0.21935
      41 -> 46         0.27017
      42 -> 44         0.41505

 Excited State   5:      Triplet-A      4.7142 eV  263.00 nm  f=0.0000  <S**2>=2.000
      39 -> 43         0.28755
      40 -> 44         0.22141
      40 -> 45        -0.27150
      41 -> 44        -0.27637
      41 -> 45        -0.21775
      42 -> 46         0.40555

 Excited State   6:      Triplet-A      4.7152 eV  262.94 nm  f=0.0000  <S**2>=2.000
      39 -> 44        -0.25891
      39 -> 46         0.10657
      40 -> 43         0.21650
      40 -> 44         0.10088
      40 -> 46         0.25181
      41 -> 43        -0.28188
      41 -> 46         0.19528
      42 -> 45         0.41466

 Excited State   7:      Triplet-A      5.1011 eV  243.05 nm  f=0.0000  <S**2>=2.000
      39 -> 44        -0.13162
      39 -> 46         0.18128
      40 -> 43        -0.16076
      40 -> 44        -0.25736
      40 -> 45         0.15369
      40 -> 46        -0.13631
      41 -> 43         0.21043
      41 -> 44        -0.19088
      41 -> 45        -0.20621
      41 -> 46        -0.10639
      42 -> 43         0.29172
      42 -> 45         0.31058

 Excited State   8:      Triplet-A      5.1103 eV  242.62 nm  f=0.0000  <S**2>=2.000
      39 -> 43         0.18221
      39 -> 45         0.16893
      40 -> 43        -0.21304
      40 -> 44        -0.18840
      40 -> 45         0.19358
      40 -> 46        -0.10446
      41 -> 43        -0.16692
      41 -> 44         0.23500
      41 -> 45         0.15509
      41 -> 46         0.13755
      42 -> 44        -0.22791
      42 -> 46         0.36278

 Excited State   9:      Triplet-A      5.9187 eV  209.48 nm  f=0.0000  <S**2>=2.000
      40 -> 43         0.27607
      40 -> 44         0.13082
      40 -> 45         0.26206
      40 -> 46        -0.27314
      41 -> 43         0.21581
      41 -> 44        -0.18317
      41 -> 45         0.20294
      41 -> 46         0.35662

 Excited State  10:      Triplet-A      5.9415 eV  208.67 nm  f=0.0000  <S**2>=2.000
      40 -> 43         0.25148
      40 -> 44        -0.25637
      40 -> 45        -0.29237
      40 -> 46        -0.14136
      41 -> 43         0.20481
      41 -> 44         0.35860
      41 -> 45        -0.22473
      41 -> 46         0.19560

 Excited State  11:      Triplet-A      5.9559 eV  208.17 nm  f=0.0000  <S**2>=2.000
      40 -> 43        -0.27787
      40 -> 44         0.24557
      40 -> 45         0.13684
      40 -> 46         0.32057
      41 -> 43         0.34753
      41 -> 44         0.18241
      41 -> 45        -0.15350
      41 -> 46         0.24069

 Excited State  12:      Triplet-A      5.9735 eV  207.56 nm  f=0.0000  <S**2>=2.000
      40 -> 43        -0.11810
      40 -> 44        -0.30392
      40 -> 45        -0.28973
      40 -> 46         0.25190
      41 -> 43         0.15278
      41 -> 44        -0.23898
      41 -> 45         0.35710
      41 -> 46         0.19067

 Excited State  13:      Triplet-A      6.0366 eV  205.39 nm  f=0.0000  <S**2>=2.000
      39 -> 43         0.55037
      39 -> 45        -0.14134
      42 -> 44        -0.21051
      42 -> 46        -0.35908

 Excited State  14:      Triplet-A      6.0507 eV  204.91 nm  f=0.0000  <S**2>=2.000
      39 -> 44         0.55957
      39 -> 46         0.13372
      42 -> 43        -0.19377
      42 -> 45         0.35848

 Excited State  15:      Triplet-A      6.0617 eV  204.54 nm  f=0.0000  <S**2>=2.000
      39 -> 43         0.16498
      39 -> 45         0.57230
      42 -> 44         0.33450
      42 -> 46        -0.17329

 Excited State  16:      Triplet-A      6.0857 eV  203.73 nm  f=0.0000  <S**2>=2.000
      39 -> 44        -0.14842
      39 -> 46         0.59089
      42 -> 43        -0.31666
      42 -> 45        -0.15788

 Excited State  17:      Triplet-A      7.0244 eV  176.50 nm  f=0.0000  <S**2>=2.000
      39 -> 48        -0.16317
      42 -> 47         0.68442

 Excited State  18:      Triplet-A      7.2204 eV  171.71 nm  f=0.0000  <S**2>=2.000
      40 -> 47         0.50488
      40 -> 48        -0.16149
      41 -> 47         0.40241
      41 -> 48         0.21620

 The electronic state is 1-A.
 Alpha  occ. eigenvalues --  -10.18788 -10.18786 -10.18752 -10.18751 -10.18712
 Alpha  occ. eigenvalues --  -10.18711 -10.18698 -10.18698 -10.18605 -10.18599
 Alpha  occ. eigenvalues --  -10.18549 -10.18548  -0.84292  -0.83963  -0.73491
 Alpha  occ. eigenvalues --   -0.73340  -0.73326  -0.73212  -0.59346  -0.59325
 Alpha  occ. eigenvalues --   -0.59322  -0.59296  -0.51874  -0.51757  -0.45373
 Alpha  occ. eigenvalues --   -0.45351  -0.44450  -0.44413  -0.41923  -0.41848
 Alpha  occ. eigenvalues --   -0.41835  -0.41787  -0.37592  -0.35242  -0.34274
 Alpha  occ. eigenvalues --   -0.34270  -0.34256  -0.34246  -0.26150  -0.25088
 Alpha  occ. eigenvalues --   -0.25087  -0.24220
 Alpha virt. eigenvalues --   -0.00680  -0.00525  -0.00465  -0.00345   0.05124
 Alpha virt. eigenvalues --    0.07069   0.08754   0.09389   0.11019   0.11411
 Alpha virt. eigenvalues --    0.13266   0.13375   0.14404   0.14717   0.15014

 Mulliken charges:
               1
     1  C    0.013810
     2  C    0.008937
     3  C    0.038813
     4  C    0.034242
     5  C    0.016941
     6  C    0.011990
     7  H   -0.020540
     8  H   -0.021739
     9  H   -0.020508
    10  H   -0.019357
    11  H   -0.021905
    12  H   -0.020671
    13  C    0.034308
    14  C    0.016862
    15  C    0.012005
    16  C    0.013784
    17  C    0.008972
    18  C    0.038820
    19  H   -0.019376
    20  H   -0.021912
    21  H   -0.020679
    22  H   -0.020540
    23  H   -0.021750
    24  H   -0.020506
 Sum of Mulliken charges =  -0.00000

 Dipole moment (field-independent basis, Debye):
    X=             -0.0003    Y=             -0.0000    Z=              0.0001  Tot=              0.0003
 Quadrupole moment (field-independent basis, Debye-Ang):
   XX=            -74.6814   YY=            -64.8337   ZZ=            -69.5483
   XY=              0.0005   XZ=              6.4386   YZ=             -0.0033

 Normal termination of Gaussian 16 at Sat May  7 21:56:59 2022.
