 Gaussian 16, Revision A.03,
 Gaussian 16:  ES64L-G16RevA.03 25-Dec-2016

 ------------------------------------------
 #p UHF/cc-pVDZ nosymm guess=mix stable=opt
 ------------------------------------------

 -----
 O2 SP
 -----
 Symbolic Z-matrix:
 Charge =  0 Multiplicity = 3

                          Input orientation:
 ---------------------------------------------------------------------
 Center     Atomic      Atomic             Coordinates (Angstroms)
 Number     Number       Type             X           Y           Z
 ---------------------------------------------------------------------
      1          8           0        0.000000    0.000000    0.000000
      2          8           0        0.000000    0.000000    1.250000
 ---------------------------------------------------------------------

 SCF Done:  E(UHF) =  -149.618022930     A.U. after   22 cycles

 Alpha  occ. eigenvalues --  -20.75501 -20.75447  -1.68418  -1.21454  -0.82287
 Alpha  occ. eigenvalues --   -0.82287  -0.74206  -0.56269  -0.56269
 Alpha virt. eigenvalues --    0.37566   1.05357   1.05357   1.05729   1.16464
 Alpha virt. eigenvalues --    1.16486   1.16486   1.32848   1.92195   2.37787
 Alpha virt. eigenvalues --    2.37787   2.64956   2.64962   2.91375   2.91475

  Beta  occ. eigenvalues --  -20.70085 -20.69984  -1.54758  -1.00851  -0.68582
  Beta  occ. eigenvalues --   -0.56014  -0.56014
  Beta virt. eigenvalues --    0.10235   0.10235   0.45301   1.08484   1.17751
  Beta virt. eigenvalues --    1.17751   1.18691   1.29046   1.29046   1.35851
  Beta virt. eigenvalues --    1.97262   2.44882   2.44882   2.76940   2.76953

 Mulliken charges and spin densities:
               1          2
     1  O   -0.000000   1.000000
     2  O    0.000000   1.000000
 Sum of Mulliken charges =  -0.00000   2.00000

 Dipole moment (field-independent basis, Debye):
    X=             -0.0000    Y=             -0.0000    Z=              0.0000  Tot=              0.0000
 Quadrupole moment (field-independent basis, Debye-Ang):
   XX=             -9.9165   YY=             -9.9165   ZZ=            -10.4227
   XY=              0.0000   XZ=              0.0000   YZ=             -0.0000

 Normal termination of Gaussian 16 at Sat Apr  2 12:38:54 2022.
