                         Program Version 5.0.0 -  RELEASE  -
|  1> ! RHF MP2 cc-pVDZ pal8
|  2> ! NoFrozenCore
|  3>
|  4> *xyz 0 1
|  5>   C   -0.84533195991773      0.95631204799741      0.86695688758137
|  6>   C   0.46296917953950      0.89055132107898      0.41153738968092
|  7>   C   1.06498249109929      2.05041746604826     -0.04872626223504
|  8>   C   0.38682375533153      3.25825741761093     -0.05957630313133
|  9>   C   -0.92916629483352      3.32496446678289      0.39786117470048
| 10>   C   -1.53691904595740      2.15806885302784      0.86178357772044
| 11>   H   -1.33177779310003      0.05786162666320      1.22288286662819
| 12>   H   1.00911644617855     -0.04137764481499      0.41174217012473
| 13>   H   0.89340943637666      4.14652768979640     -0.40661874558071
| 14>   H   -2.56260459262502      2.18503471734340      1.20271069002731
| 15>   C   -1.66709331376272      4.62322731007777      0.38662794093699
| 16>   C   -2.42161858132883      5.01473379007752      1.49250102782185
| 17>   C   -1.61923201631221      5.46623475990715     -0.72389685760276
| 18>   C   -3.10577169358506      6.21908872396761      1.47479389475736
| 19>   H   -2.46369194088787      4.39499072034369      2.37581764658229
| 20>   C   -2.30901947987771      6.66904435935388     -0.72694800403690
| 21>   H   -1.05555752795261      5.17208444276276     -1.59838613456934
| 22>   C   -3.05941590604282      7.05751618377553      0.37275066068088
| 23>   H   -2.26865845182014      7.30948735218955     -1.59800079723894
| 24>   H   -3.60007805771479      7.99261925989212      0.37887337421372
| 25>   Cl  2.70997882629083      1.99495162290832     -0.61716762133114
| 26>   Cl  -4.03387825909787      6.68923511320967      2.87110846426962
| 27> *
| 28>
| 29>                          ****END OF INPUT****

CARTESIAN COORDINATES (ANGSTROEM)
---------------------------------
  C     -0.845332    0.956312    0.866957
  C      0.462969    0.890551    0.411537
  C      1.064982    2.050417   -0.048726
  C      0.386824    3.258257   -0.059576
  C     -0.929166    3.324964    0.397861
  C     -1.536919    2.158069    0.861784
  H     -1.331778    0.057862    1.222883
  H      1.009116   -0.041378    0.411742
  H      0.893409    4.146528   -0.406619
  H     -2.562605    2.185035    1.202711
  C     -1.667093    4.623227    0.386628
  C     -2.421619    5.014734    1.492501
  C     -1.619232    5.466235   -0.723897
  C     -3.105772    6.219089    1.474794
  H     -2.463692    4.394991    2.375818
  C     -2.309019    6.669044   -0.726948
  H     -1.055558    5.172084   -1.598386
  C     -3.059416    7.057516    0.372751
  H     -2.268658    7.309487   -1.598001
  H     -3.600078    7.992619    0.378873
  Cl     2.709979    1.994952   -0.617168
  Cl    -4.033878    6.689235    2.871108

 Total Charge           Charge          ....    0
 Multiplicity           Mult            ....    1
 Number of Electrons    NEL             ....  114
 Basis Dimension        Dim             ....  244

ORBITAL ENERGIES
----------------

  NO   OCC          E(Eh)            E(eV)
   0   2.0000    -104.837145     -2852.7638
   1   2.0000    -104.837140     -2852.7636
   2   2.0000     -11.311074      -307.7900
   3   2.0000     -11.311073      -307.7899
   4   2.0000     -11.269895      -306.6694
   5   2.0000     -11.269206      -306.6507
   6   2.0000     -11.258914      -306.3706
   7   2.0000     -11.258911      -306.3705
   8   2.0000     -11.258542      -306.3605
   9   2.0000     -11.258538      -306.3604
  10   2.0000     -11.257477      -306.3315
  11   2.0000     -11.257476      -306.3315
  12   2.0000     -11.253995      -306.2368
  13   2.0000     -11.253993      -306.2367
  14   2.0000     -10.564185      -287.4661
  15   2.0000     -10.564180      -287.4660
  16   2.0000      -8.031824      -218.5571
  17   2.0000      -8.031819      -218.5569
  18   2.0000      -8.028389      -218.4636
  19   2.0000      -8.028384      -218.4634
  20   2.0000      -8.028290      -218.4609
  21   2.0000      -8.028285      -218.4607
  22   2.0000      -1.209060       -32.9002
  23   2.0000      -1.195593       -32.5337
  24   2.0000      -1.141480       -31.0612
  25   2.0000      -1.119333       -30.4586
  26   2.0000      -1.067801       -29.0563
  27   2.0000      -1.025833       -27.9143
  28   2.0000      -1.004224       -27.3263
  29   2.0000      -0.998337       -27.1661
  30   2.0000      -0.879447       -23.9310
  31   2.0000      -0.852910       -23.2089
  32   2.0000      -0.822459       -22.3803
  33   2.0000      -0.801037       -21.7973
  34   2.0000      -0.724568       -19.7165
  35   2.0000      -0.700083       -19.0502
  36   2.0000      -0.673306       -18.3216
  37   2.0000      -0.659974       -17.9588
  38   2.0000      -0.644461       -17.5367
  39   2.0000      -0.626465       -17.0470
  40   2.0000      -0.606829       -16.5127
  41   2.0000      -0.596892       -16.2423
  42   2.0000      -0.590631       -16.0719
  43   2.0000      -0.556254       -15.1365
  44   2.0000      -0.547987       -14.9115
  45   2.0000      -0.544983       -14.8297
  46   2.0000      -0.523613       -14.2482
  47   2.0000      -0.510626       -13.8948
  48   2.0000      -0.507679       -13.8147
  49   2.0000      -0.481209       -13.0944
  50   2.0000      -0.466477       -12.6935
  51   2.0000      -0.458808       -12.4848
  52   2.0000      -0.455149       -12.3852
  53   2.0000      -0.381406       -10.3786
  54   2.0000      -0.346681        -9.4337
  55   2.0000      -0.345241        -9.3945
  56   2.0000      -0.322419        -8.7735
  57   0.0000       0.085664         2.3310
  58   0.0000       0.114766         3.1229
  59   0.0000       0.115226         3.1355
  60   0.0000       0.151000         4.1089
  61   0.0000       0.172829         4.7029

MULLIKEN ATOMIC CHARGES
-----------------------
   0 C :    0.010762
   1 C :    0.083004
   2 C :   -0.188702
   3 C :    0.125081
   4 C :   -0.066193
   5 C :    0.002962
   6 H :    0.035302
   7 H :    0.038297
   8 H :    0.033466
   9 H :    0.024601
  10 C :   -0.066208
  11 C :    0.125082
  12 C :    0.002974
  13 C :   -0.188687
  14 H :    0.033463
  15 C :    0.010755
  16 H :    0.024601
  17 C :    0.082994
  18 H :    0.035299
  19 H :    0.038294
  20 Cl:   -0.098580
  21 Cl:   -0.098565
Sum of atomic charges:    0.0000000

LOEWDIN ATOMIC CHARGES
----------------------
   0 C :   -0.011245
   1 C :   -0.031705
   2 C :   -0.131046
   3 C :   -0.025208
   4 C :   -0.014190
   5 C :   -0.019257
   6 H :    0.033937
   7 H :    0.033800
   8 H :    0.032363
   9 H :    0.030501
  10 C :   -0.014192
  11 C :   -0.025213
  12 C :   -0.019251
  13 C :   -0.131066
  14 H :    0.032363
  15 C :   -0.011250
  16 H :    0.030501
  17 C :   -0.031703
  18 H :    0.033937
  19 H :    0.033799
  20 Cl:    0.102049
  21 Cl:    0.102078

  Mayer bond orders larger than 0.100000
B(  0-C ,  1-C ) :   1.4562 B(  0-C ,  5-C ) :   1.4741 B(  0-C ,  6-H ) :   0.9680
B(  1-C ,  2-C ) :   1.3887 B(  1-C ,  7-H ) :   0.9709 B(  2-C ,  3-C ) :   1.3936
B(  2-C , 20-Cl) :   1.0644 B(  3-C ,  4-C ) :   1.4297 B(  3-C ,  8-H ) :   0.9661
B(  4-C ,  5-C ) :   1.4298 B(  4-C , 10-C ) :   1.0487 B(  5-C ,  9-H ) :   0.9709
B( 10-C , 11-C ) :   1.4297 B( 10-C , 12-C ) :   1.4298 B( 11-C , 13-C ) :   1.3936
B( 11-C , 14-H ) :   0.9661 B( 12-C , 15-C ) :   1.4740 B( 12-C , 16-H ) :   0.9709
B( 13-C , 17-C ) :   1.3886 B( 13-C , 21-Cl) :   1.0644 B( 15-C , 17-C ) :   1.4562
B( 15-C , 18-H ) :   0.9680 B( 17-C , 19-H ) :   0.9709

MP2 TOTAL ENERGY:    -1379.997038540 Eh
FINAL SINGLE POINT ENERGY     -1379.997038539707

DIPOLE MOMENT
-------------
                                X             Y             Z
Electronic contribution:      3.27567       1.89492       3.78324
Nuclear contribution   :     -3.59384      -2.07894      -4.15061
                        -----------------------------------------
Total Dipole Moment    :     -0.31817      -0.18401      -0.36736
                        -----------------------------------------
Magnitude (a.u.)       :      0.51966
Magnitude (Debye)      :      1.32088

Rotational constants in cm-1:     0.042977     0.007687     0.006936
Rotational constants in MHz :  1288.420402   230.438753   207.945622

                             ****ORCA TERMINATED NORMALLY****
TOTAL RUN TIME: 0 days 0 hours 0 minutes 40 seconds 939 msec
