                         Program Version 5.0.0 -  RELEASE  -
|  1> ! BLYP cc-pVDZ NoRI pal8
|  2>
|  3> *xyz 0 1
|  4>   C   -0.84533195991773      0.95631204799741      0.86695688758137
|  5>   C   0.46296917953950      0.89055132107898      0.41153738968092
|  6>   C   1.06498249109929      2.05041746604826     -0.04872626223504
|  7>   C   0.38682375533153      3.25825741761093     -0.05957630313133
|  8>   C   -0.92916629483352      3.32496446678289      0.39786117470048
|  9>   C   -1.53691904595740      2.15806885302784      0.86178357772044
| 10>   H   -1.33177779310003      0.05786162666320      1.22288286662819
| 11>   H   1.00911644617855     -0.04137764481499      0.41174217012473
| 12>   H   0.89340943637666      4.14652768979640     -0.40661874558071
| 13>   H   -2.56260459262502      2.18503471734340      1.20271069002731
| 14>   C   -1.66709331376272      4.62322731007777      0.38662794093699
| 15>   C   -2.42161858132883      5.01473379007752      1.49250102782185
| 16>   C   -1.61923201631221      5.46623475990715     -0.72389685760276
| 17>   C   -3.10577169358506      6.21908872396761      1.47479389475736
| 18>   H   -2.46369194088787      4.39499072034369      2.37581764658229
| 19>   C   -2.30901947987771      6.66904435935388     -0.72694800403690
| 20>   H   -1.05555752795261      5.17208444276276     -1.59838613456934
| 21>   C   -3.05941590604282      7.05751618377553      0.37275066068088
| 22>   H   -2.26865845182014      7.30948735218955     -1.59800079723894
| 23>   H   -3.60007805771479      7.99261925989212      0.37887337421372
| 24>   Cl  2.70997882629083      1.99495162290832     -0.61716762133114
| 25>   Cl  -4.03387825909787      6.68923511320967      2.87110846426962
| 26> **                         ****END OF INPUT****

CARTESIAN COORDINATES (ANGSTROEM)
---------------------------------
  C     -0.845332    0.956312    0.866957
  C      0.462969    0.890551    0.411537
  C      1.064982    2.050417   -0.048726
  C      0.386824    3.258257   -0.059576
  C     -0.929166    3.324964    0.397861
  C     -1.536919    2.158069    0.861784
  H     -1.331778    0.057862    1.222883
  H      1.009116   -0.041378    0.411742
  H      0.893409    4.146528   -0.406619
  H     -2.562605    2.185035    1.202711
  C     -1.667093    4.623227    0.386628
  C     -2.421619    5.014734    1.492501
  C     -1.619232    5.466235   -0.723897
  C     -3.105772    6.219089    1.474794
  H     -2.463692    4.394991    2.375818
  C     -2.309019    6.669044   -0.726948
  H     -1.055558    5.172084   -1.598386
  C     -3.059416    7.057516    0.372751
  H     -2.268658    7.309487   -1.598001
  H     -3.600078    7.992619    0.378873
  Cl     2.709979    1.994952   -0.617168
  Cl    -4.033878    6.689235    2.871108

 Total Charge           Charge          ....    0
 Multiplicity           Mult            ....    1
 Number of Electrons    NEL             ....  114
 Basis Dimension        Dim             ....  244

ORBITAL ENERGIES
----------------

  NO   OCC          E(Eh)            E(eV)
   0   2.0000    -100.746814     -2741.4602
   1   2.0000    -100.746813     -2741.4602
   2   2.0000      -9.983857      -271.6746
   3   2.0000      -9.983852      -271.6744
   4   2.0000      -9.947822      -270.6940
   5   2.0000      -9.947712      -270.6910
   6   2.0000      -9.938481      -270.4398
   7   2.0000      -9.938479      -270.4398
   8   2.0000      -9.937965      -270.4258
   9   2.0000      -9.937963      -270.4257
  10   2.0000      -9.937830      -270.4221
  11   2.0000      -9.937829      -270.4221
  12   2.0000      -9.933991      -270.3176
  13   2.0000      -9.933983      -270.3174
  14   2.0000      -9.177346      -249.7283
  15   2.0000      -9.177340      -249.7281
  16   2.0000      -7.010335      -190.7609
  17   2.0000      -7.010329      -190.7608
  18   2.0000      -6.999340      -190.4617
  19   2.0000      -6.999340      -190.4617
  20   2.0000      -6.998725      -190.4450
  21   2.0000      -6.998724      -190.4450
  22   2.0000      -0.817072       -22.2337
  23   2.0000      -0.810478       -22.0542
  24   2.0000      -0.772613       -21.0239
  25   2.0000      -0.754374       -20.5276
  26   2.0000      -0.708034       -19.2666
  27   2.0000      -0.677183       -18.4271
  28   2.0000      -0.662459       -18.0264
  29   2.0000      -0.656657       -17.8685
  30   2.0000      -0.576272       -15.6812
  31   2.0000      -0.558977       -15.2105
  32   2.0000      -0.536229       -14.5915
  33   2.0000      -0.522209       -14.2100
  34   2.0000      -0.478563       -13.0224
  35   2.0000      -0.455974       -12.4077
  36   2.0000      -0.433103       -11.7853
  37   2.0000      -0.422407       -11.4943
  38   2.0000      -0.411299       -11.1920
  39   2.0000      -0.401015       -10.9122
  40   2.0000      -0.386815       -10.5258
  41   2.0000      -0.384436       -10.4610
  42   2.0000      -0.382334       -10.4038
  43   2.0000      -0.356966        -9.7135
  44   2.0000      -0.349658        -9.5147
  45   2.0000      -0.337499        -9.1838
  46   2.0000      -0.325488        -8.8570
  47   2.0000      -0.314565        -8.5597
  48   2.0000      -0.309715        -8.4278
  49   2.0000      -0.298056        -8.1105
  50   2.0000      -0.287329        -7.8186
  51   2.0000      -0.267150        -7.2695
  52   2.0000      -0.264585        -7.1997
  53   2.0000      -0.249423        -6.7871
  54   2.0000      -0.223952        -6.0940
  55   2.0000      -0.218048        -5.9334
  56   2.0000      -0.209576        -5.7028
  57   0.0000      -0.063103        -1.7171
  58   0.0000      -0.042575        -1.1585
  59   0.0000      -0.042350        -1.1524
  60   0.0000      -0.018802        -0.5116
  61   0.0000       0.003936         0.1071

MULLIKEN ATOMIC CHARGES
-----------------------
   0 C :    0.082441
   1 C :    0.147508
   2 C :   -0.126146
   3 C :    0.143623
   4 C :    0.035384
   5 C :    0.053064
   6 H :   -0.053633
   7 H :   -0.059048
   8 H :   -0.068377
   9 H :   -0.071111
  10 C :    0.035189
  11 C :    0.143780
  12 C :    0.053026
  13 C :   -0.126185
  14 H :   -0.068406
  15 C :    0.082353
  16 H :   -0.071153
  17 C :    0.147635
  18 H :   -0.053649
  19 H :   -0.059036
  20 Cl:   -0.083637
  21 Cl:   -0.083622
Sum of atomic charges:    0.0000000

LOEWDIN ATOMIC CHARGES
----------------------
   0 C :   -0.010429
   1 C :   -0.028894
   2 C :   -0.141039
   3 C :   -0.022872
   4 C :   -0.010823
   5 C :   -0.014934
   6 H :    0.026809
   7 H :    0.025121
   8 H :    0.023112
   9 H :    0.022640
  10 C :   -0.010829
  11 C :   -0.022869
  12 C :   -0.014939
  13 C :   -0.141067
  14 H :    0.023111
  15 C :   -0.010431
  16 H :    0.022634
  17 C :   -0.028887
  18 H :    0.026808
  19 H :    0.025122
  20 Cl:    0.131312
  21 Cl:    0.131343

  Mayer bond orders larger than 0.100000
B(  0-C ,  1-C ) :   1.4483 B(  0-C ,  5-C ) :   1.4522 B(  0-C ,  6-H ) :   0.9153
B(  1-C ,  2-C ) :   1.4060 B(  1-C ,  7-H ) :   0.9179 B(  2-C ,  3-C ) :   1.3831
B(  2-C , 20-Cl) :   1.0206 B(  3-C ,  4-C ) :   1.4234 B(  3-C ,  8-H ) :   0.9121
B(  4-C ,  5-C ) :   1.4361 B(  4-C , 10-C ) :   0.9513 B(  5-C ,  9-H ) :   0.9177
B( 10-C , 11-C ) :   1.4234 B( 10-C , 12-C ) :   1.4362 B( 11-C , 13-C ) :   1.3831
B( 11-C , 14-H ) :   0.9121 B( 12-C , 15-C ) :   1.4522 B( 12-C , 16-H ) :   0.9176
B( 13-C , 17-C ) :   1.4059 B( 13-C , 21-Cl) :   1.0206 B( 15-C , 17-C ) :   1.4483
B( 15-C , 18-H ) :   0.9153 B( 17-C , 19-H ) :   0.9179

FINAL SINGLE POINT ENERGY     -1382.317115424414

DIPOLE MOMENT
-------------
                                X             Y             Z
Electronic contribution:      3.34744       1.93643       3.86614
Nuclear contribution   :     -3.59384      -2.07894      -4.15061
                        -----------------------------------------
Total Dipole Moment    :     -0.24640      -0.14250      -0.28446
                        -----------------------------------------
Magnitude (a.u.)       :      0.40242
Magnitude (Debye)      :      1.02286

Rotational constants in cm-1:     0.042977     0.007687     0.006936
Rotational constants in MHz :  1288.420402   230.438753   207.945622

                             ****ORCA TERMINATED NORMALLY****
TOTAL RUN TIME: 0 days 0 hours 0 minutes 44 seconds 94 msec
