                         Program Version 5.0.0 -  RELEASE  -
|  1> ! def2-SVP pal8
|  2> ! moread
|  3>
|  4> %moinp "C7H14-ROHF.gbw"
|  5>
|  6> %casscf
|  7> 	mult 	1
|  8> 	nel 	2
|  9> 	norb 	2
| 10> end
| 11>
| 12> *xyz 0 3
| 13>   C     -3.693788    1.345950   -0.080153
| 14>   C     -2.193484    1.373788   -0.056812
| 15>   H     -4.225508    1.180088   -1.010334
| 16>   H     -4.255204    1.224048    0.839301
| 17>   C     -1.554416   -0.023401   -0.016100
| 18>   H     -1.824927    1.905707   -0.939850
| 19>   H     -1.852812    1.944021    0.813355
| 20>   C     -0.027056    0.014500    0.007320
| 21>   H     -1.919913   -0.559214    0.866609
| 22>   H     -1.893486   -0.598246   -0.884715
| 23>   H      0.334747    0.551752   -0.877315
| 24>   H      0.305045    0.594496    0.874340
| 25>   C      0.609304   -1.374514    0.044919
| 26>   H      0.262703   -1.951369   -0.819054
| 27>   H      0.259278   -1.912060    0.933203
| 28>   C      2.147820   -1.364759    0.037560
| 29>   H      2.493149   -2.399801   -0.057561
| 30>   H      2.498336   -0.839762   -0.856087
| 31>   C      2.771544   -0.752033    1.258758
| 32>   H      3.140055    0.266294    1.257206
| 33>   H      2.687753   -1.251260    2.218099
| 34> *
| 35>
| 36>
| 37>                          ****END OF INPUT****

CARTESIAN COORDINATES (ANGSTROEM)
---------------------------------
  C     -3.693788    1.345950   -0.080153
  C     -2.193484    1.373788   -0.056812
  H     -4.225508    1.180088   -1.010334
  H     -4.255204    1.224048    0.839301
  C     -1.554416   -0.023401   -0.016100
  H     -1.824927    1.905707   -0.939850
  H     -1.852812    1.944021    0.813355
  C     -0.027056    0.014500    0.007320
  H     -1.919913   -0.559214    0.866609
  H     -1.893486   -0.598246   -0.884715
  H      0.334747    0.551752   -0.877315
  H      0.305045    0.594496    0.874340
  C      0.609304   -1.374514    0.044919
  H      0.262703   -1.951369   -0.819054
  H      0.259278   -1.912060    0.933203
  C      2.147820   -1.364759    0.037560
  H      2.493149   -2.399801   -0.057561
  H      2.498336   -0.839762   -0.856087
  C      2.771544   -0.752033    1.258758
  H      3.140055    0.266294    1.257206
  H      2.687753   -1.251260    2.218099

 Total Charge           Charge          ....    0
 Multiplicity           Mult            ....    3
 Number of Electrons    NEL             ....   56
 Basis Dimension        Dim             ....  168

ORBITAL ENERGIES
----------------

  NO   OCC          E(Eh)            E(eV)
   0   2.0000     -11.225576      -305.4634
   1   2.0000     -11.224490      -305.4339
   2   2.0000     -11.220902      -305.3363
   3   2.0000     -11.220797      -305.3334
   4   2.0000     -11.220625      -305.3287
   5   2.0000     -11.220009      -305.3120
   6   2.0000     -11.217699      -305.2491
   7   2.0000      -1.080441       -29.4003
   8   2.0000      -1.036727       -28.2108
   9   2.0000      -0.966280       -26.2938
  10   2.0000      -0.883693       -24.0465
  11   2.0000      -0.817406       -22.2428
  12   2.0000      -0.777191       -21.1484
  13   2.0000      -0.763152       -20.7664
  14   2.0000      -0.653697       -17.7880
  15   2.0000      -0.625195       -17.0124
  16   2.0000      -0.605206       -16.4685
  17   2.0000      -0.577601       -15.7173
  18   2.0000      -0.561384       -15.2760
  19   2.0000      -0.553251       -15.0547
  20   2.0000      -0.530891       -14.4463
  21   2.0000      -0.508958       -13.8494
  22   2.0000      -0.492512       -13.4019
  23   2.0000      -0.473405       -12.8820
  24   2.0000      -0.463657       -12.6168
  25   2.0000      -0.461315       -12.5530
  26   2.0000      -0.458421       -12.4743
  27   1.0140      -0.093420        -2.5421
  28   0.9860      -0.089154        -2.4260
  29   0.0000       0.179134         4.8745
  30   0.0000       0.194457         5.2915
  31   0.0000       0.205436         5.5902
  32   0.0000       0.208611         5.6766
  33   0.0000       0.229577         6.2471

MULLIKEN ATOMIC CHARGES
-----------------------
   0 C :   -0.107466
   1 C :   -0.045580
   2 H :    0.055487
   3 H :    0.055583
   4 C :   -0.063044
   5 H :    0.031028
   6 H :    0.031279
   7 C :   -0.060148
   8 H :    0.022385
   9 H :    0.021907
  10 H :    0.018313
  11 H :    0.025461
  12 C :   -0.052810
  13 H :    0.024048
  14 H :    0.021733
  15 C :   -0.031231
  16 H :    0.037840
  17 H :    0.029872
  18 C :   -0.129082
  19 H :    0.060111
  20 H :    0.054312
Sum of atomic charges:    0.0000000

LOEWDIN ATOMIC CHARGES
----------------------
   0 C :   -0.006854
   1 C :   -0.039275
   2 H :    0.006510
   3 H :    0.006554
   4 C :   -0.019412
   5 H :    0.016198
   6 H :    0.016278
   7 C :   -0.023167
   8 H :    0.010199
   9 H :    0.009757
  10 H :    0.009693
  11 H :    0.010116
  12 C :   -0.018477
  13 H :    0.011093
  14 H :    0.009903
  15 C :   -0.038341
  16 H :    0.019269
  17 H :    0.015889
  18 C :   -0.009341
  19 H :    0.007196
  20 H :    0.006214

  Mayer bond orders larger than 0.100000
B(  0-C ,  1-C ) :   1.0324 B(  0-C ,  2-H ) :   0.9838 B(  0-C ,  3-H ) :   0.9838
B(  1-C ,  4-C ) :   1.0216 B(  1-C ,  5-H ) :   0.9741 B(  1-C ,  6-H ) :   0.9740
B(  4-C ,  7-C ) :   1.0303 B(  4-C ,  8-H ) :   0.9715 B(  4-C ,  9-H ) :   0.9719
B(  7-C , 10-H ) :   0.9706 B(  7-C , 11-H ) :   0.9701 B(  7-C , 12-C ) :   1.0160
B( 12-C , 13-H ) :   0.9736 B( 12-C , 14-H ) :   0.9713 B( 12-C , 15-C ) :   1.0428
B( 15-C , 16-H ) :   0.9779 B( 15-C , 17-H ) :   0.9746 B( 15-C , 18-C ) :   1.0147
B( 18-C , 19-H ) :   0.9846 B( 18-C , 20-H ) :   0.9836

FINAL SINGLE POINT ENERGY      -272.936279051657

DIPOLE MOMENT
-------------
                                X             Y             Z
Electronic contribution:      0.08356       0.14057       0.00129
Nuclear contribution   :     -0.08888      -0.22844      -0.02714
                        -----------------------------------------
Total Dipole Moment    :     -0.00532      -0.08787      -0.02585
                        -----------------------------------------
Magnitude (a.u.)       :      0.09175
Magnitude (Debye)      :      0.23321

Rotational constants in cm-1:     0.281333     0.028707     0.027530
Rotational constants in MHz :  8434.155340   860.619249   825.340837

                             ****ORCA TERMINATED NORMALLY****
TOTAL RUN TIME: 0 days 0 hours 0 minutes 10 seconds 84 msec
