 Gaussian 16, Revision A.03,
 Gaussian 16:  ES64L-G16RevA.03 25-Dec-2016

 --------------------
 #p UHF/STO-3G nosymm
 --------------------

 ---------
 H2 UHF SP
 ---------
 Symbolic Z-matrix:
 Charge =  0 Multiplicity = 1

                          Input orientation:
 ---------------------------------------------------------------------
 Center     Atomic      Atomic             Coordinates (Angstroms)
 Number     Number       Type             X           Y           Z
 ---------------------------------------------------------------------
      1          1           0        0.000000    0.000000    0.000000
      2          1           0        2.000000    0.000000    0.000000
 ---------------------------------------------------------------------

 SCF Done:  E(UHF) = -0.783792654860     A.U. after    1 cycles

 Alpha  occ. eigenvalues --   -0.26946
 Alpha virt. eigenvalues --    0.10900
  Beta  occ. eigenvalues --   -0.26946
  Beta virt. eigenvalues --    0.10900

 Mulliken charges and spin densities:
               1          2
     1  H   -0.000000   0.000000
     2  H    0.000000   0.000000
 Sum of Mulliken charges =  -0.00000   0.00000

 Dipole moment (field-independent basis, Debye):
    X=              0.0000    Y=              0.0000    Z=              0.0000  Tot=              0.0000
 Quadrupole moment (field-independent basis, Debye-Ang):
   XX=             -1.0096   YY=             -1.8564   ZZ=             -1.8564
   XY=              0.0000   XZ=              0.0000   YZ=              0.0000

 Normal termination of Gaussian 16 at Tue Mar 29 17:42:16 2022.
