                         Program Version 5.0.0 -  RELEASE  -
|  1> ! TZVP Usesym MOread
|  2> %moinp	"cytosine-RHF.gbw"
|  3>
|  4> %pal
|  5> 	nprocs	16
|  6> end
|  7>
|  8> %scf
|  9>     rotate
| 10>         {20,25} {23,26} {30,33} {31,38}
| 11>     end
| 12> end
| 13>
| 14> %casscf
| 15> 	nel	    10
| 16> 	norb    8
| 17> 	irrep   0
| 18>     mult    1
| 19>     NRoots  6
| 20> end
| 21>
| 22> # cytosine
| 23>
| 24> *xyz 0 1
| 25>  H 	-2.114860 		-1.429678 		0.000000
| 26>  H 	-0.173973 		-2.806186 		0.000000
| 27>  H 	2.073228 		-1.658021 		0.000000
| 28>  H 	3.175240 		0.564335 		0.000000
| 29>  H 	2.235202 		2.033636 		0.000000
| 30>  C 	-0.060783 		-1.726152 		0.000000
| 31>  C 	1.144884 		-1.099470 		0.000000
| 32>  C 	1.107049 		0.338190 		0.000000
| 33>  C 	-1.227573 		0.430359 		0.000000
| 34>  O 	-2.315109 		0.998271 		0.000000
| 35>  N 	0.000000 		1.058130 		0.000000
| 36>  N 	-1.201178 		-0.989148 		0.000000
| 37>  N 	2.278974 		1.024187 		0.000000
| 38> *
| 39>
| 40>                          ****END OF INPUT****

CARTESIAN COORDINATES (ANGSTROEM)
---------------------------------
  H     -2.068662   -1.458962    0.000000
  H     -0.127775   -2.835470    0.000000
  H      2.119426   -1.687305    0.000000
  H      3.221438    0.535051    0.000000
  H      2.281400    2.004352    0.000000
  C     -0.014585   -1.755436    0.000000
  C      1.191082   -1.128754    0.000000
  C      1.153247    0.308906    0.000000
  C     -1.181375    0.401075    0.000000
  O     -2.268911    0.968987    0.000000
  N      0.046198    1.028846    0.000000
  N     -1.154980   -1.018432    0.000000
  N      2.325172    0.994903    0.000000

 Total Charge           Charge          ....    0
 Multiplicity           Mult            ....    1
 Number of Electrons    NEL             ....   58
 Basis Dimension        Dim             ....  182

ORBITAL ENERGIES
----------------

  NO   OCC          E(Eh)            E(eV)    Irrep
   0   2.0000     -20.541377      -558.9593    1-A'
   1   2.0000     -15.632796      -425.3900    2-A'
   2   2.0000     -15.598938      -424.4687    3-A'
   3   2.0000     -15.550285      -423.1448    4-A'
   4   2.0000     -11.343563      -308.6740    5-A'
   5   2.0000     -11.295599      -307.3689    6-A'
   6   2.0000     -11.286209      -307.1134    7-A'
   7   2.0000     -11.236563      -305.7624    8-A'
   8   2.0000      -1.398287       -38.0493    9-A'
   9   2.0000      -1.295514       -35.2527   10-A'
  10   2.0000      -1.257186       -34.2098   11-A'
  11   2.0000      -1.165577       -31.7170   12-A'
  12   2.0000      -1.051567       -28.6146   13-A'
  13   2.0000      -0.889994       -24.2180   14-A'
  14   2.0000      -0.874601       -23.7991   15-A'
  15   2.0000      -0.759483       -20.6666   16-A'
  16   2.0000      -0.753720       -20.5098   17-A'
  17   2.0000      -0.714925       -19.4541   18-A'
  18   2.0000      -0.675348       -18.3772   19-A'
  19   2.0000      -0.634795       -17.2736   20-A'
  20   2.0000      -0.597388       -16.2557   21-A'
  21   2.0000      -0.593592       -16.1525   22-A'
  22   2.0000      -0.469925       -12.7873   23-A'
  23   2.0000      -0.428386       -11.6570   24-A'
  24   0.0889       0.349724         9.5165    1-A"
  25   0.4138       0.125563         3.4167    2-A"
  26   0.6022       0.044640         1.2147    3-A"
  27   1.5087      -0.282194        -7.6789    4-A"
  28   1.6453      -0.327061        -8.8998    5-A"
  29   1.8140      -0.464875       -12.6499    6-A"
  30   1.9597      -0.542973       -14.7750    7-A"
  31   1.9674      -0.565716       -15.3939    8-A"
  32   0.0000       0.126359         3.4384   25-A'
  33   0.0000       0.136530         3.7152   26-A'
  34   0.0000       0.167706         4.5635   27-A'
  35   0.0000       0.188000         5.1157   28-A'
  36   0.0000       0.207184         5.6378   29-A'

MULLIKEN ATOMIC CHARGES
-----------------------
   0 H :    0.272712
   1 H :    0.124609
   2 H :    0.145045
   3 H :    0.248872
   4 H :    0.265774
   5 C :   -0.159335
   6 C :   -0.099967
   7 C :   -0.033621
   8 C :    0.139234
   9 O :   -0.347385
  10 N :   -0.077606
  11 N :   -0.147892
  12 N :   -0.330442
Sum of atomic charges:   -0.0000000

LOEWDIN ATOMIC CHARGES
----------------------
   0 H :    0.153939
   1 H :    0.074066
   2 H :    0.076797
   3 H :    0.132758
   4 H :    0.142342
   5 C :    0.014275
   6 C :   -0.154423
   7 C :    0.020369
   8 C :    0.112623
   9 O :   -0.240554
  10 N :   -0.193444
  11 N :   -0.048003
  12 N :   -0.090746

  Mayer bond orders larger than 0.100000
B(  0-H , 11-N ) :   0.9006 B(  1-H ,  5-C ) :   0.9779 B(  2-H ,  6-C ) :   0.9376
B(  3-H , 12-N ) :   0.9265 B(  4-H , 12-N ) :   0.9079 B(  5-C ,  6-C ) :   1.2216
B(  5-C , 11-N ) :   1.1596 B(  6-C ,  7-C ) :   1.1584 B(  6-C , 11-N ) :  -0.1123
B(  7-C , 10-N ) :   1.3090 B(  7-C , 12-N ) :   1.0671 B(  8-C ,  9-O ) :   1.5565
B(  8-C , 10-N ) :   1.2579 B(  8-C , 11-N ) :   0.9572

FINAL SINGLE POINT ENERGY      -392.575207126082

DIPOLE MOMENT
-------------
                                X             Y             Z
Electronic contribution:     -3.48121       1.61104       0.00000
Nuclear contribution   :      5.06353      -3.20965       0.00000
                        -----------------------------------------
Total Dipole Moment    :      1.58231      -1.59861       0.00000
                        -----------------------------------------
Magnitude (a.u.)       :      2.24929
Magnitude (Debye)      :      5.71723

Rotational constants in cm-1:     0.128680     0.067098     0.044102
Rotational constants in MHz :  3857.734772  2011.552363  1322.142761

                             ****ORCA TERMINATED NORMALLY****
TOTAL RUN TIME: 0 days 0 hours 0 minutes 24 seconds 181 msec
