                         Program Version 5.0.0 -  RELEASE  -
|  1> ! TZVP Usesym MOread
|  2> %moinp	"cytosine-RHF.gbw"
|  3>
|  4> %pal
|  5> 	nprocs	32
|  6> end
|  7>
|  8> %scf
|  9>     rotate
| 10>         {20,22} {30,33} {31,38}
| 11>     end
| 12> end
| 13>
| 14> %casscf
| 15> 	nel	        14
| 16> 	norb        10
| 17> 	irrep       0,1
| 18>     mult        1,1
| 19>     Nroots      1,2
| 20>     bweight     1,2
| 21>     weights[0]= 1
| 22>     weights[1]= 1,1
| 23> end
| 24>
| 25> # cytosine
| 26>
| 27> *xyz 0 1
| 28>  H 	-2.114860 		-1.429678 		0.000000
| 29>  H 	-0.173973 		-2.806186 		0.000000
| 30>  H 	2.073228 		-1.658021 		0.000000
| 31>  H 	3.175240 		0.564335 		0.000000
| 32>  H 	2.235202 		2.033636 		0.000000
| 33>  C 	-0.060783 		-1.726152 		0.000000
| 34>  C 	1.144884 		-1.099470 		0.000000
| 35>  C 	1.107049 		0.338190 		0.000000
| 36>  C 	-1.227573 		0.430359 		0.000000
| 37>  O 	-2.315109 		0.998271 		0.000000
| 38>  N 	0.000000 		1.058130 		0.000000
| 39>  N 	-1.201178 		-0.989148 		0.000000
| 40>  N 	2.278974 		1.024187 		0.000000
| 41> *
| 42>
| 43>                          ****END OF INPUT****

CARTESIAN COORDINATES (ANGSTROEM)
---------------------------------
  H     -2.068662   -1.458962    0.000000
  H     -0.127775   -2.835470    0.000000
  H      2.119426   -1.687305    0.000000
  H      3.221438    0.535051    0.000000
  H      2.281400    2.004352    0.000000
  C     -0.014585   -1.755436    0.000000
  C      1.191082   -1.128754    0.000000
  C      1.153247    0.308906    0.000000
  C     -1.181375    0.401075    0.000000
  O     -2.268911    0.968987    0.000000
  N      0.046198    1.028846    0.000000
  N     -1.154980   -1.018432    0.000000
  N      2.325172    0.994903    0.000000

 Total Charge           Charge          ....    0
 Multiplicity           Mult            ....    1
 Number of Electrons    NEL             ....   58
 Basis Dimension        Dim             ....  182

ORBITAL ENERGIES
----------------

  NO   OCC          E(Eh)            E(eV)    Irrep
   0   2.0000     -20.586282      -560.1812    1-A'
   1   2.0000     -15.599849      -424.4935    2-A'
   2   2.0000     -15.583799      -424.0567    3-A'
   3   2.0000     -15.560172      -423.4138    4-A'
   4   2.0000     -11.365592      -309.2735    5-A'
   5   2.0000     -11.291650      -307.2614    6-A'
   6   2.0000     -11.267479      -306.6037    7-A'
   7   2.0000     -11.229960      -305.5828    8-A'
   8   2.0000      -1.426810       -38.8255    9-A'
   9   2.0000      -1.295065       -35.2405   10-A'
  10   2.0000      -1.241314       -33.7779   11-A'
  11   2.0000      -1.162575       -31.6353   12-A'
  12   2.0000      -1.041414       -28.3383   13-A'
  13   2.0000      -0.879676       -23.9372   14-A'
  14   2.0000      -0.872037       -23.7293   15-A'
  15   2.0000      -0.745453       -20.2848   16-A'
  16   2.0000      -0.737228       -20.0610   17-A'
  17   2.0000      -0.709619       -19.3097   18-A'
  18   2.0000      -0.656577       -17.8664   19-A'
  19   2.0000      -0.649865       -17.6837   20-A'
  20   2.0000      -0.591569       -16.0974   21-A'
  21   2.0000      -0.573359       -15.6019   22-A'
  22   0.0674       0.344902         9.3853    1-A"
  23   0.1693       0.182788         4.9739    2-A"
  24   0.6884       0.038843         1.0570    3-A"
  25   1.6561      -0.395358       -10.7582   23-A'
  26   1.6764      -0.418898       -11.3988   24-A'
  27   1.8636      -0.369430       -10.0527    4-A"
  28   1.9317      -0.435703       -11.8561    5-A"
  29   1.9559      -0.540975       -14.7207    6-A"
  30   1.9931      -0.542387       -14.7591    7-A"
  31   1.9980      -0.479156       -13.0385    8-A"
  32   0.0000       0.134888         3.6705   25-A'
  33   0.0000       0.144510         3.9323   26-A'
  34   0.0000       0.172666         4.6985   27-A'
  35   0.0000       0.194705         5.2982   28-A'
  36   0.0000       0.209854         5.7104   29-A'

MULLIKEN ATOMIC CHARGES
-----------------------
   0 H :    0.265397
   1 H :    0.114250
   2 H :    0.135113
   3 H :    0.241536
   4 H :    0.248135
   5 C :   -0.162626
   6 C :   -0.057900
   7 C :   -0.003916
   8 C :    0.216245
   9 O :   -0.268983
  10 N :   -0.061787
  11 N :   -0.244270
  12 N :   -0.421194
Sum of atomic charges:    0.0000000

LOEWDIN ATOMIC CHARGES
----------------------
   0 H :    0.145747
   1 H :    0.072102
   2 H :    0.079597
   3 H :    0.126675
   4 H :    0.130932
   5 C :    0.002308
   6 C :   -0.128589
   7 C :    0.023219
   8 C :    0.153822
   9 O :   -0.155295
  10 N :   -0.124114
  11 N :   -0.145322
  12 N :   -0.181083

  Mayer bond orders larger than 0.100000
B(  0-H , 11-N ) :   0.9102 B(  1-H ,  5-C ) :   0.9732 B(  2-H ,  6-C ) :   0.9404
B(  3-H , 12-N ) :   0.9355 B(  4-H , 12-N ) :   0.9242 B(  5-C ,  6-C ) :   1.5585
B(  5-C , 11-N ) :   1.0597 B(  6-C ,  7-C ) :   1.1899 B(  7-C , 10-N ) :   1.2838
B(  7-C , 12-N ) :   1.0374 B(  8-C ,  9-O ) :   1.5426 B(  8-C , 10-N ) :   1.2438
B(  8-C , 11-N ) :   0.9859

FINAL SINGLE POINT ENERGY      -392.667565743319

DIPOLE MOMENT
-------------
                                X             Y             Z
Electronic contribution:     -4.09558       2.07524       0.00000
Nuclear contribution   :      5.06353      -3.20965       0.00000
                        -----------------------------------------
Total Dipole Moment    :      0.96795      -1.13441       0.00000
                        -----------------------------------------
Magnitude (a.u.)       :      1.49124
Magnitude (Debye)      :      3.79043

Rotational constants in cm-1:     0.128680     0.067098     0.044102
Rotational constants in MHz :  3857.734772  2011.552363  1322.142761

                             ****ORCA TERMINATED NORMALLY****
TOTAL RUN TIME: 0 days 0 hours 0 minutes 18 seconds 945 msec
