                         Program Version 5.0.0 -  RELEASE  -
|  1> ! RKS B3LYP/G cc-pVTZ NoRI pal8
|  2>
|  3> *xyz 0 1
|  4>   C   -0.84533195991773      0.95631204799741      0.86695688758137
|  5>   C   0.46296917953950      0.89055132107898      0.41153738968092
|  6>   C   1.06498249109929      2.05041746604826     -0.04872626223504
|  7>   C   0.38682375533153      3.25825741761093     -0.05957630313133
|  8>   C   -0.92916629483352      3.32496446678289      0.39786117470048
|  9>   C   -1.53691904595740      2.15806885302784      0.86178357772044
| 10>   H   -1.33177779310003      0.05786162666320      1.22288286662819
| 11>   H   1.00911644617855     -0.04137764481499      0.41174217012473
| 12>   H   0.89340943637666      4.14652768979640     -0.40661874558071
| 13>   H   -2.56260459262502      2.18503471734340      1.20271069002731
| 14>   C   -1.66709331376272      4.62322731007777      0.38662794093699
| 15>   C   -2.42161858132883      5.01473379007752      1.49250102782185
| 16>   C   -1.61923201631221      5.46623475990715     -0.72389685760276
| 17>   C   -3.10577169358506      6.21908872396761      1.47479389475736
| 18>   H   -2.46369194088787      4.39499072034369      2.37581764658229
| 19>   C   -2.30901947987771      6.66904435935388     -0.72694800403690
| 20>   H   -1.05555752795261      5.17208444276276     -1.59838613456934
| 21>   C   -3.05941590604282      7.05751618377553      0.37275066068088
| 22>   H   -2.26865845182014      7.30948735218955     -1.59800079723894
| 23>   H   -3.60007805771479      7.99261925989212      0.37887337421372
| 24>   Cl  2.70997882629083      1.99495162290832     -0.61716762133114
| 25>   Cl  -4.03387825909787      6.68923511320967      2.87110846426962
| 26> **                         ****END OF INPUT****

CARTESIAN COORDINATES (ANGSTROEM)
---------------------------------
  C     -0.845332    0.956312    0.866957
  C      0.462969    0.890551    0.411537
  C      1.064982    2.050417   -0.048726
  C      0.386824    3.258257   -0.059576
  C     -0.929166    3.324964    0.397861
  C     -1.536919    2.158069    0.861784
  H     -1.331778    0.057862    1.222883
  H      1.009116   -0.041378    0.411742
  H      0.893409    4.146528   -0.406619
  H     -2.562605    2.185035    1.202711
  C     -1.667093    4.623227    0.386628
  C     -2.421619    5.014734    1.492501
  C     -1.619232    5.466235   -0.723897
  C     -3.105772    6.219089    1.474794
  H     -2.463692    4.394991    2.375818
  C     -2.309019    6.669044   -0.726948
  H     -1.055558    5.172084   -1.598386
  C     -3.059416    7.057516    0.372751
  H     -2.268658    7.309487   -1.598001
  H     -3.600078    7.992619    0.378873
  Cl     2.709979    1.994952   -0.617168
  Cl    -4.033878    6.689235    2.871108

 Total Charge           Charge          ....    0
 Multiplicity           Mult            ....    1
 Number of Electrons    NEL             ....  114
 Basis Dimension        Dim             ....  540

ORBITAL ENERGIES
----------------

  NO   OCC          E(Eh)            E(eV)
   0   2.0000    -101.565712     -2763.7435
   1   2.0000    -101.565710     -2763.7435
   2   2.0000     -10.247518      -278.8492
   3   2.0000     -10.247516      -278.8491
   4   2.0000     -10.209210      -277.8067
   5   2.0000     -10.208912      -277.7986
   6   2.0000     -10.196564      -277.4626
   7   2.0000     -10.196562      -277.4625
   8   2.0000     -10.196384      -277.4577
   9   2.0000     -10.196382      -277.4576
  10   2.0000     -10.195730      -277.4399
  11   2.0000     -10.195728      -277.4399
  12   2.0000     -10.192249      -277.3452
  13   2.0000     -10.192246      -277.3451
  14   2.0000      -9.471345      -257.7284
  15   2.0000      -9.471343      -257.7283
  16   2.0000      -7.234312      -196.8556
  17   2.0000      -7.234307      -196.8555
  18   2.0000      -7.225673      -196.6205
  19   2.0000      -7.225673      -196.6205
  20   2.0000      -7.225252      -196.6091
  21   2.0000      -7.225252      -196.6091
  22   2.0000      -0.909228       -24.7414
  23   2.0000      -0.901336       -24.5266
  24   2.0000      -0.861065       -23.4308
  25   2.0000      -0.842049       -22.9133
  26   2.0000      -0.793884       -21.6027
  27   2.0000      -0.760757       -20.7013
  28   2.0000      -0.745012       -20.2728
  29   2.0000      -0.738871       -20.1057
  30   2.0000      -0.651356       -17.7243
  31   2.0000      -0.632554       -17.2127
  32   2.0000      -0.608186       -16.5496
  33   2.0000      -0.592847       -16.1322
  34   2.0000      -0.543994       -14.8028
  35   2.0000      -0.520310       -14.1583
  36   2.0000      -0.497572       -13.5396
  37   2.0000      -0.484171       -13.1750
  38   2.0000      -0.474126       -12.9016
  39   2.0000      -0.460158       -12.5215
  40   2.0000      -0.444625       -12.0989
  41   2.0000      -0.443694       -12.0735
  42   2.0000      -0.439588       -11.9618
  43   2.0000      -0.413883       -11.2623
  44   2.0000      -0.405980       -11.0473
  45   2.0000      -0.394354       -10.7309
  46   2.0000      -0.380526       -10.3546
  47   2.0000      -0.368555       -10.0289
  48   2.0000      -0.365149        -9.9362
  49   2.0000      -0.351306        -9.5595
  50   2.0000      -0.339825        -9.2471
  51   2.0000      -0.322190        -8.7672
  52   2.0000      -0.319272        -8.6878
  53   2.0000      -0.293128        -7.9764
  54   2.0000      -0.265534        -7.2255
  55   2.0000      -0.260945        -7.1007
  56   2.0000      -0.249307        -6.7840
  57   0.0000      -0.052122        -1.4183
  58   0.0000      -0.030606        -0.8328
  59   0.0000      -0.029947        -0.8149
  60   0.0000      -0.004399        -0.1197
  61   0.0000       0.018024         0.4905

MULLIKEN ATOMIC CHARGES
-----------------------
   0 C :   -0.091744
   1 C :   -0.126038
   2 C :    0.078329
   3 C :   -0.146016
   4 C :    0.066276
   5 C :   -0.133825
   6 H :    0.112890
   7 H :    0.122228
   8 H :    0.122644
   9 H :    0.114936
  10 C :    0.066709
  11 C :   -0.145842
  12 C :   -0.134013
  13 C :    0.078047
  14 H :    0.122640
  15 C :   -0.091997
  16 H :    0.114859
  17 C :   -0.125830
  18 H :    0.112857
  19 H :    0.122344
  20 Cl:   -0.119737
  21 Cl:   -0.119717
Sum of atomic charges:    0.0000000

LOEWDIN ATOMIC CHARGES
----------------------
   0 C :    0.038091
   1 C :    0.014571
   2 C :   -0.294778
   3 C :    0.027671
   4 C :   -0.032842
   5 C :    0.045057
   6 H :   -0.022149
   7 H :   -0.024938
   8 H :   -0.024114
   9 H :   -0.024075
  10 C :   -0.032829
  11 C :    0.027666
  12 C :    0.045056
  13 C :   -0.294810
  14 H :   -0.024111
  15 C :    0.038084
  16 H :   -0.024080
  17 C :    0.014574
  18 H :   -0.022149
  19 H :   -0.024936
  20 Cl:    0.297505
  21 Cl:    0.297538

  Mayer bond orders larger than 0.100000
B(  0-C ,  1-C ) :   1.3533 B(  0-C ,  5-C ) :   1.3719 B(  0-C ,  6-H ) :   0.9769
B(  1-C ,  2-C ) :   1.3368 B(  1-C ,  7-H ) :   0.9714 B(  2-C ,  3-C ) :   1.3299
B(  2-C , 20-Cl) :   1.0184 B(  3-C ,  4-C ) :   1.3188 B(  3-C ,  8-H ) :   0.9695
B(  4-C ,  5-C ) :   1.3319 B(  4-C , 10-C ) :   1.0100 B(  5-C ,  9-H ) :   0.9736
B( 10-C , 11-C ) :   1.3186 B( 10-C , 12-C ) :   1.3319 B( 11-C , 13-C ) :   1.3302
B( 11-C , 14-H ) :   0.9695 B( 12-C , 15-C ) :   1.3721 B( 12-C , 16-H ) :   0.9736
B( 13-C , 17-C ) :   1.3368 B( 13-C , 21-Cl) :   1.0184 B( 15-C , 17-C ) :   1.3533
B( 15-C , 18-H ) :   0.9769 B( 17-C , 19-H ) :   0.9714

FINAL SINGLE POINT ENERGY     -1382.729368762655

DIPOLE MOMENT
-------------
                                X             Y             Z
Electronic contribution:      3.31968       1.92035       3.83405
Nuclear contribution   :     -3.59384      -2.07894      -4.15061
                        -----------------------------------------
Total Dipole Moment    :     -0.27416      -0.15859      -0.31656
                        -----------------------------------------
Magnitude (a.u.)       :      0.44780
Magnitude (Debye)      :      1.13821

Rotational constants in cm-1:     0.042977     0.007687     0.006936
Rotational constants in MHz :  1288.420402   230.438753   207.945622

                             ****ORCA TERMINATED NORMALLY****
TOTAL RUN TIME: 0 days 0 hours 3 minutes 24 seconds 292 msec
