                         Program Version 5.0.0 -  RELEASE  -
|  1> !UKS BP86 def2-TZVP Slowconv NoRI VeryTightSCF
|  2> !MOread
|  3>
|  4> %pal
|  5>     nprocs          16
|  6> end
|  7>
|  8> %moinp      "RC2-highspin.gbw"
|  9>
| 10> %scf
| 11>     MaxIter         500
| 12>     FlipSpin        44
| 13>     FinalMs         0.5
| 14> end
| 15>
| 16> *xyz +1 12
| 17>  C		41.75734		53.28449		36.46919
| 18>  N		42.79051		53.11573		35.57330
| 19>  H		43.17228		53.83016		34.93276
| 20>  C		43.13470		51.81354		35.56329
| 21>  H		43.91258		51.37948		34.93820
| 22>  N		42.38034		51.13480		36.42217
| 23>  C		41.51102		52.03696		36.99860
| 24>  H		40.83095		51.72793		37.79245
| 25>  C		40.09781		47.27650		33.80529
| 26>  N		40.02170		48.59447		33.39932
| 27>  H		39.44553		49.01241		32.66056
| 28>  C		40.82359		49.32561		34.20213
| 29>  H		40.95446		50.40104		34.10028
| 30>  N		41.40873		48.54956		35.10172
| 31>  C		40.96816		47.26932		34.87055
| 32>  H		41.28796		46.44831		35.50461
| 33>  C		38.24452		48.45120		37.81512
| 34>  H		38.05954		49.38046		37.26339
| 35>  H		37.98665		48.64263		38.86852
| 36>  C		39.72949		48.13040		37.79333
| 37>  O		40.09429		46.93627		38.07351
| 38>  O		40.51997		49.08118		37.60316
| 39>  C		38.64927		43.85206		40.73245
| 40>  N		39.75373		43.46182		41.46772
| 41>  H		39.79496		42.88382		42.31310
| 42>  C		40.85618		43.95072		40.86918
| 43>  H		41.86248		43.73518		41.21408
| 44>  N		40.53224		44.65285		39.79009
| 45>  C		39.15837		44.58557		39.68680
| 46>  H		38.64146		45.07274		38.87046
| 47>  C		42.78261		43.20374		35.50847
| 48>  N		41.70457		42.56369		36.07793
| 49>  H		41.38806		41.60804		35.87571
| 50>  C		41.22829		43.34611		37.06176
| 51>  H		40.41508		43.05921		37.72131
| 52>  N		41.93561		44.46974		37.14515
| 53>  C		42.91935		44.39163		36.18162
| 54>  H		43.65310		45.17946		36.03202
| 55>  C		45.76058		48.09668		34.01433
| 56>  H		45.12510		47.65198		33.22625
| 57>  H		46.65442		47.46412		34.10910
| 58>  C		44.94912		48.01873		35.29961
| 59>  O		44.13484		48.94943		35.55949
| 60>  O		45.08257		46.97820		36.01440
| 61>  Fe		42.54704		49.05340		36.88791
| 62>  Fe		41.81454		46.03362		38.62691
| 63>  O		42.83673		47.18336		37.38865
| 64>  H		43.73372		46.94370		37.02075
| 65>  C		43.49278		47.06016		40.65639
| 66>  C		43.63065		47.67500		42.05411
| 67>  C		45.10402		47.59104		42.50255
| 68>  C		45.62433		46.15327		42.46003
| 69>  C		45.40442		45.48020		41.08199
| 70>  C		43.93248		45.59938		40.69958
| 71>  O		42.19054		47.11944		40.15943
| 72>  O		42.78039		47.01168		42.97373
| 73>  O		45.28803		48.11581		43.80122
| 74>  O		46.99863		46.17840		42.81016
| 75>  O		45.74779		44.11749		41.08768
| 76>  O		43.60537		45.05344		39.42059
| 77>  H		44.16891		47.60985		39.96716
| 78>  H		43.37366		48.74650		41.98883
| 79>  H		45.70535		48.16646		41.76817
| 80>  H		45.03997		45.57270		43.19200
| 81>  H		46.02107		46.03839		40.34306
| 82>  H		43.34294		45.09136		41.47918
| 83>  H		42.11013		47.68750		43.28882
| 84>  H		45.23162		49.11556		43.72066
| 85>  H		47.38293		45.25457		42.73301
| 86>  H		46.61533		43.98339		41.55425
| 87>  H		43.52006		44.03995		39.45021
| 88>  O		42.85959		49.69549		38.87779
| 89>  O		44.06259		49.60890		38.41687
| 90>  H		41.30606		54.24869		36.70311
| 91>  H		39.55759		46.43186		33.37773
| 92>  H		37.59815		47.66320		37.42867
| 93>  H		37.60541		43.64578		40.96882
| 94>  H		43.42741		42.77068		34.74377
| 95>  H		46.04094		49.08905		33.66124
| 96> *
| 97>
| 98> %method
| 99>     frozencore  fc_ewin
|100> end
|101>
|102>
|103>
|104>
|105>                          ****END OF INPUT****

CARTESIAN COORDINATES (ANGSTROEM)
---------------------------------
  C     41.757340   53.284490   36.469190
  N     42.790510   53.115730   35.573300
  H     43.172280   53.830160   34.932760
  C     43.134700   51.813540   35.563290
  H     43.912580   51.379480   34.938200
  N     42.380340   51.134800   36.422170
  C     41.511020   52.036960   36.998600
  H     40.830950   51.727930   37.792450
  C     40.097810   47.276500   33.805290
  N     40.021700   48.594470   33.399320
  H     39.445530   49.012410   32.660560
  C     40.823590   49.325610   34.202130
  H     40.954460   50.401040   34.100280
  N     41.408730   48.549560   35.101720
  C     40.968160   47.269320   34.870550
  H     41.287960   46.448310   35.504610
  C     38.244520   48.451200   37.815120
  H     38.059540   49.380460   37.263390
  H     37.986650   48.642630   38.868520
  C     39.729490   48.130400   37.793330
  O     40.094290   46.936270   38.073510
  O     40.519970   49.081180   37.603160
  C     38.649270   43.852060   40.732450
  N     39.753730   43.461820   41.467720
  H     39.794960   42.883820   42.313100
  C     40.856180   43.950720   40.869180
  H     41.862480   43.735180   41.214080
  N     40.532240   44.652850   39.790090
  C     39.158370   44.585570   39.686800
  H     38.641460   45.072740   38.870460
  C     42.782610   43.203740   35.508470
  N     41.704570   42.563690   36.077930
  H     41.388060   41.608040   35.875710
  C     41.228290   43.346110   37.061760
  H     40.415080   43.059210   37.721310
  N     41.935610   44.469740   37.145150
  C     42.919350   44.391630   36.181620
  H     43.653100   45.179460   36.032020
  C     45.760580   48.096680   34.014330
  H     45.125100   47.651980   33.226250
  H     46.654420   47.464120   34.109100
  C     44.949120   48.018730   35.299610
  O     44.134840   48.949430   35.559490
  O     45.082570   46.978200   36.014400
  Fe    42.547040   49.053400   36.887910
  Fe    41.814540   46.033620   38.626910
  O     42.836730   47.183360   37.388650
  H     43.733720   46.943700   37.020750
  C     43.492780   47.060160   40.656390
  C     43.630650   47.675000   42.054110
  C     45.104020   47.591040   42.502550
  C     45.624330   46.153270   42.460030
  C     45.404420   45.480200   41.081990
  C     43.932480   45.599380   40.699580
  O     42.190540   47.119440   40.159430
  O     42.780390   47.011680   42.973730
  O     45.288030   48.115810   43.801220
  O     46.998630   46.178400   42.810160
  O     45.747790   44.117490   41.087680
  O     43.605370   45.053440   39.420590
  H     44.168910   47.609850   39.967160
  H     43.373660   48.746500   41.988830
  H     45.705350   48.166460   41.768170
  H     45.039970   45.572700   43.192000
  H     46.021070   46.038390   40.343060
  H     43.342940   45.091360   41.479180
  H     42.110130   47.687500   43.288820
  H     45.231620   49.115560   43.720660
  H     47.382930   45.254570   42.733010
  H     46.615330   43.983390   41.554250
  H     43.520060   44.039950   39.450210
  O     42.859590   49.695490   38.877790
  O     44.062590   49.608900   38.416870
  H     41.306060   54.248690   36.703110
  H     39.557590   46.431860   33.377730
  H     37.598150   47.663200   37.428670
  H     37.605410   43.645780   40.968820
  H     43.427410   42.770680   34.743770
  H     46.040940   49.089050   33.661240

 Total Charge           Charge          ....    1
 Multiplicity           Mult            ....   12
 Number of Electrons    NEL             ....  377
 Basis Dimension        Dim             .... 1627

ORBITAL ENERGIES
----------------
                 SPIN UP ORBITALS
  NO   OCC          E(Eh)            E(eV)
   0   1.0000    -254.898583     -6936.1431
   1   1.0000    -254.889449     -6935.8945
   2   1.0000     -29.644369      -806.6643
   3   1.0000     -29.637678      -806.4822
   4   1.0000     -25.590627      -696.3564
   5   1.0000     -25.587422      -696.2692
   6   1.0000     -25.580512      -696.0811
   7   1.0000     -25.579032      -696.0408
   8   1.0000     -25.572703      -695.8686
   9   1.0000     -25.568264      -695.7478
  10   1.0000     -18.929381      -515.0947
  11   1.0000     -18.919625      -514.8292
  12   1.0000     -18.904095      -514.4066
  13   1.0000     -18.860244      -513.2133
  14   1.0000     -18.845911      -512.8233
  15   1.0000     -18.842023      -512.7175
  16   1.0000     -18.836427      -512.5652
  17   1.0000     -18.835491      -512.5398
  18   1.0000     -18.831022      -512.4182
  19   1.0000     -18.825073      -512.2563
  20   1.0000     -18.822655      -512.1905
  21   1.0000     -18.815906      -512.0068
  22   1.0000     -18.790889      -511.3261
  23   1.0000     -14.173525      -385.6812
  24   1.0000     -14.170274      -385.5928
  25   1.0000     -14.161195      -385.3457
  26   1.0000     -14.156209      -385.2100
  27   1.0000     -14.121569      -384.2674
  28   1.0000     -14.118993      -384.1973
  29   1.0000     -14.109874      -383.9492
  30   1.0000     -14.094106      -383.5201
  31   1.0000     -10.079285      -274.2713
  32   1.0000     -10.065151      -273.8867
  33   1.0000     -10.060292      -273.7545
  34   1.0000     -10.056551      -273.6527
  35   1.0000     -10.048431      -273.4317
  36   1.0000     -10.044554      -273.3262
  37   1.0000     -10.036449      -273.1057
  38   1.0000     -10.034271      -273.0464
  39   1.0000     -10.028844      -272.8987
  40   1.0000     -10.026902      -272.8459
  41   1.0000     -10.023079      -272.7419
  42   1.0000     -10.019682      -272.6494
  43   1.0000     -10.019546      -272.6457
  44   1.0000     -10.019042      -272.6320
  45   1.0000     -10.018264      -272.6108
  46   1.0000     -10.017293      -272.5844
  47   1.0000     -10.012628      -272.4575
  48   1.0000     -10.012035      -272.4413
  49   1.0000     -10.009247      -272.3654
  50   1.0000      -9.999346      -272.0960
  51   1.0000      -9.971331      -271.3337
  52   1.0000      -9.951531      -270.7949
  53   1.0000      -3.372274       -91.7642
  54   1.0000      -3.369156       -91.6794
  55   1.0000      -2.199915       -59.8627
  56   1.0000      -2.197560       -59.7986
  57   1.0000      -2.193118       -59.6778
  58   1.0000      -2.189711       -59.5851
  59   1.0000      -2.165910       -58.9374
  60   1.0000      -2.162159       -58.8353
  61   1.0000      -1.150493       -31.3065
  62   1.0000      -1.058385       -28.8001
  63   1.0000      -1.053544       -28.6684
  64   1.0000      -1.051472       -28.6120
  65   1.0000      -1.050917       -28.5969
  66   1.0000      -1.040938       -28.3254
  67   1.0000      -1.034877       -28.1604
  68   1.0000      -1.032016       -28.0826
  69   1.0000      -1.029399       -28.0114
  70   1.0000      -1.017489       -27.6873
  71   1.0000      -1.004167       -27.3248
  72   1.0000      -0.990524       -26.9535
  73   1.0000      -0.965559       -26.2742
  74   1.0000      -0.959537       -26.1103
  75   1.0000      -0.943038       -25.6614
  76   1.0000      -0.932115       -25.3641
  77   1.0000      -0.916770       -24.9466
  78   1.0000      -0.913190       -24.8492
  79   1.0000      -0.903466       -24.5846
  80   1.0000      -0.897231       -24.4149
  81   1.0000      -0.813793       -22.1444
  82   1.0000      -0.792784       -21.5727
  83   1.0000      -0.787210       -21.4211
  84   1.0000      -0.777842       -21.1662
  85   1.0000      -0.773350       -21.0439
  86   1.0000      -0.756518       -20.5859
  87   1.0000      -0.738874       -20.1058
  88   1.0000      -0.738299       -20.0901
  89   1.0000      -0.720806       -19.6141
  90   1.0000      -0.717613       -19.5273
  91   1.0000      -0.675878       -18.3916
  92   1.0000      -0.673112       -18.3163
  93   1.0000      -0.662581       -18.0297
  94   1.0000      -0.658494       -17.9185
  95   1.0000      -0.650740       -17.7075
  96   1.0000      -0.647503       -17.6195
  97   1.0000      -0.646971       -17.6050
  98   1.0000      -0.638672       -17.3792
  99   1.0000      -0.631263       -17.1775
 100   1.0000      -0.626354       -17.0440
 101   1.0000      -0.618622       -16.8335
 102   1.0000      -0.617539       -16.8041
 103   1.0000      -0.608307       -16.5529
 104   1.0000      -0.604597       -16.4519
 105   1.0000      -0.597892       -16.2695
 106   1.0000      -0.572455       -15.5773
 107   1.0000      -0.567062       -15.4305
 108   1.0000      -0.564298       -15.3553
 109   1.0000      -0.548929       -14.9371
 110   1.0000      -0.543694       -14.7947
 111   1.0000      -0.537292       -14.6205
 112   1.0000      -0.522249       -14.2111
 113   1.0000      -0.515284       -14.0216
 114   1.0000      -0.513644       -13.9770
 115   1.0000      -0.512306       -13.9406
 116   1.0000      -0.508241       -13.8299
 117   1.0000      -0.507276       -13.8037
 118   1.0000      -0.506247       -13.7757
 119   1.0000      -0.504128       -13.7180
 120   1.0000      -0.502070       -13.6620
 121   1.0000      -0.501086       -13.6352
 122   1.0000      -0.497423       -13.5356
 123   1.0000      -0.495476       -13.4826
 124   1.0000      -0.494760       -13.4631
 125   1.0000      -0.493689       -13.4340
 126   1.0000      -0.490423       -13.3451
 127   1.0000      -0.487760       -13.2726
 128   1.0000      -0.485600       -13.2138
 129   1.0000      -0.483387       -13.1536
 130   1.0000      -0.482761       -13.1366
 131   1.0000      -0.481752       -13.1091
 132   1.0000      -0.476528       -12.9670
 133   1.0000      -0.475950       -12.9513
 134   1.0000      -0.473623       -12.8879
 135   1.0000      -0.470639       -12.8067
 136   1.0000      -0.465656       -12.6711
 137   1.0000      -0.463501       -12.6125
 138   1.0000      -0.461106       -12.5473
 139   1.0000      -0.456331       -12.4174
 140   1.0000      -0.455186       -12.3862
 141   1.0000      -0.451950       -12.2982
 142   1.0000      -0.450620       -12.2620
 143   1.0000      -0.444808       -12.1039
 144   1.0000      -0.434951       -11.8356
 145   1.0000      -0.430721       -11.7205
 146   1.0000      -0.427271       -11.6266
 147   1.0000      -0.420942       -11.4544
 148   1.0000      -0.415722       -11.3124
 149   1.0000      -0.411249       -11.1907
 150   1.0000      -0.407703       -11.0942
 151   1.0000      -0.404208       -10.9991
 152   1.0000      -0.401187       -10.9169
 153   1.0000      -0.399344       -10.8667
 154   1.0000      -0.393254       -10.7010
 155   1.0000      -0.386022       -10.5042
 156   1.0000      -0.381676       -10.3859
 157   1.0000      -0.380409       -10.3514
 158   1.0000      -0.375248       -10.2110
 159   1.0000      -0.373487       -10.1631
 160   1.0000      -0.370110       -10.0712
 161   1.0000      -0.364294        -9.9129
 162   1.0000      -0.363944        -9.9034
 163   1.0000      -0.359967        -9.7952
 164   1.0000      -0.351425        -9.5628
 165   1.0000      -0.343421        -9.3450
 166   1.0000      -0.342379        -9.3166
 167   1.0000      -0.333787        -9.0828
 168   1.0000      -0.327430        -8.9098
 169   1.0000      -0.323826        -8.8118
 170   1.0000      -0.320288        -8.7155
 171   1.0000      -0.318018        -8.6537
 172   1.0000      -0.316800        -8.6206
 173   1.0000      -0.315221        -8.5776
 174   1.0000      -0.312834        -8.5126
 175   1.0000      -0.312087        -8.4923
 176   1.0000      -0.311120        -8.4660
 177   1.0000      -0.307289        -8.3618
 178   1.0000      -0.301591        -8.2067
 179   1.0000      -0.297995        -8.1089
 180   1.0000      -0.290649        -7.9090
 181   1.0000      -0.284671        -7.7463
 182   1.0000      -0.282705        -7.6928
 183   1.0000      -0.268912        -7.3175
 184   1.0000      -0.264745        -7.2041
 185   1.0000      -0.260597        -7.0912
 186   1.0000      -0.256637        -6.9835
 187   1.0000      -0.253210        -6.8902
 188   1.0000      -0.239326        -6.5124
 189   0.0000      -0.222705        -6.0601
 190   0.0000      -0.216714        -5.8971
 191   0.0000      -0.209340        -5.6964
 192   0.0000      -0.201137        -5.4732
 193   0.0000      -0.185758        -5.0547

                 SPIN DOWN ORBITALS
  NO   OCC          E(Eh)            E(eV)
   0   1.0000    -254.898401     -6936.1381
   1   1.0000    -254.889137     -6935.8860
   2   1.0000     -29.628518      -806.2330
   3   1.0000     -29.613002      -805.8107
   4   1.0000     -25.575313      -695.9397
   5   1.0000     -25.573935      -695.9022
   6   1.0000     -25.565551      -695.6740
   7   1.0000     -25.560173      -695.5277
   8   1.0000     -25.558104      -695.4714
   9   1.0000     -25.553532      -695.3470
  10   1.0000     -18.946318      -515.5555
  11   1.0000     -18.936596      -515.2910
  12   1.0000     -18.904401      -514.4149
  13   1.0000     -18.860235      -513.2131
  14   1.0000     -18.845927      -512.8237
  15   1.0000     -18.842020      -512.7174
  16   1.0000     -18.837322      -512.5896
  17   1.0000     -18.835529      -512.5408
  18   1.0000     -18.829896      -512.3875
  19   1.0000     -18.824753      -512.2476
  20   1.0000     -18.821330      -512.1544
  21   1.0000     -18.815066      -511.9840
  22   1.0000     -18.790883      -511.3259
  23   1.0000     -14.173525      -385.6812
  24   1.0000     -14.170281      -385.5930
  25   1.0000     -14.161213      -385.3462
  26   1.0000     -14.156144      -385.2083
  27   1.0000     -14.121616      -384.2687
  28   1.0000     -14.118794      -384.1919
  29   1.0000     -14.110131      -383.9562
  30   1.0000     -14.092410      -383.4740
  31   1.0000     -10.079086      -274.2659
  32   1.0000     -10.065192      -273.8878
  33   1.0000     -10.060305      -273.7548
  34   1.0000     -10.056511      -273.6516
  35   1.0000     -10.048475      -273.4329
  36   1.0000     -10.044508      -273.3250
  37   1.0000     -10.036453      -273.1058
  38   1.0000     -10.034151      -273.0431
  39   1.0000     -10.028832      -272.8984
  40   1.0000     -10.026902      -272.8459
  41   1.0000     -10.023111      -272.7427
  42   1.0000     -10.019681      -272.6494
  43   1.0000     -10.019659      -272.6488
  44   1.0000     -10.019046      -272.6321
  45   1.0000     -10.018212      -272.6094
  46   1.0000     -10.017312      -272.5849
  47   1.0000     -10.012612      -272.4570
  48   1.0000     -10.012044      -272.4416
  49   1.0000     -10.009255      -272.3657
  50   1.0000      -9.999348      -272.0961
  51   1.0000      -9.971395      -271.3354
  52   1.0000      -9.951444      -270.7926
  53   1.0000      -3.333647       -90.7131
  54   1.0000      -3.316914       -90.2578
  55   1.0000      -2.154135       -58.6170
  56   1.0000      -2.150161       -58.5089
  57   1.0000      -2.141294       -58.2676
  58   1.0000      -2.141199       -58.2650
  59   1.0000      -2.132318       -58.0233
  60   1.0000      -2.122934       -57.7680
  61   1.0000      -1.179611       -32.0988
  62   1.0000      -1.058783       -28.8110
  63   1.0000      -1.053603       -28.6700
  64   1.0000      -1.051479       -28.6122
  65   1.0000      -1.051319       -28.6078
  66   1.0000      -1.041071       -28.3290
  67   1.0000      -1.034179       -28.1414
  68   1.0000      -1.032074       -28.0842
  69   1.0000      -1.028654       -27.9911
  70   1.0000      -1.017486       -27.6872
  71   1.0000      -1.004170       -27.3249
  72   1.0000      -0.990545       -26.9541
  73   1.0000      -0.966302       -26.2944
  74   1.0000      -0.957495       -26.0548
  75   1.0000      -0.941743       -25.6261
  76   1.0000      -0.930552       -25.3216
  77   1.0000      -0.916773       -24.9466
  78   1.0000      -0.913038       -24.8450
  79   1.0000      -0.903654       -24.5897
  80   1.0000      -0.895982       -24.3809
  81   1.0000      -0.813619       -22.1397
  82   1.0000      -0.798314       -21.7232
  83   1.0000      -0.792816       -21.5736
  84   1.0000      -0.787177       -21.4202
  85   1.0000      -0.777871       -21.1670
  86   1.0000      -0.773044       -21.0356
  87   1.0000      -0.739086       -20.1115
  88   1.0000      -0.738336       -20.0911
  89   1.0000      -0.720608       -19.6088
  90   1.0000      -0.717342       -19.5199
  91   1.0000      -0.675883       -18.3917
  92   1.0000      -0.672998       -18.3132
  93   1.0000      -0.662728       -18.0337
  94   1.0000      -0.657765       -17.8987
  95   1.0000      -0.650754       -17.7079
  96   1.0000      -0.647471       -17.6186
  97   1.0000      -0.646900       -17.6031
  98   1.0000      -0.638780       -17.3821
  99   1.0000      -0.630651       -17.1609
 100   1.0000      -0.626353       -17.0439
 101   1.0000      -0.618558       -16.8318
 102   1.0000      -0.617421       -16.8009
 103   1.0000      -0.608254       -16.5514
 104   1.0000      -0.604369       -16.4457
 105   1.0000      -0.597729       -16.2650
 106   1.0000      -0.572379       -15.5752
 107   1.0000      -0.566813       -15.4238
 108   1.0000      -0.564092       -15.3497
 109   1.0000      -0.548881       -14.9358
 110   1.0000      -0.542865       -14.7721
 111   1.0000      -0.537372       -14.6226
 112   1.0000      -0.525525       -14.3003
 113   1.0000      -0.517346       -14.0777
 114   1.0000      -0.514582       -14.0025
 115   1.0000      -0.512843       -13.9552
 116   1.0000      -0.511976       -13.9316
 117   1.0000      -0.510383       -13.8882
 118   1.0000      -0.508920       -13.8484
 119   1.0000      -0.507191       -13.8014
 120   1.0000      -0.504813       -13.7367
 121   1.0000      -0.502429       -13.6718
 122   1.0000      -0.501647       -13.6505
 123   1.0000      -0.500619       -13.6225
 124   1.0000      -0.497421       -13.5355
 125   1.0000      -0.495667       -13.4878
 126   1.0000      -0.495088       -13.4720
 127   1.0000      -0.492076       -13.3901
 128   1.0000      -0.491455       -13.3732
 129   1.0000      -0.487379       -13.2622
 130   1.0000      -0.483964       -13.1693
 131   1.0000      -0.483020       -13.1436
 132   1.0000      -0.482311       -13.1243
 133   1.0000      -0.477046       -12.9811
 134   1.0000      -0.475942       -12.9510
 135   1.0000      -0.473288       -12.8788
 136   1.0000      -0.467767       -12.7286
 137   1.0000      -0.465539       -12.6680
 138   1.0000      -0.462466       -12.5843
 139   1.0000      -0.460483       -12.5304
 140   1.0000      -0.454943       -12.3796
 141   1.0000      -0.453801       -12.3486
 142   1.0000      -0.451483       -12.2855
 143   1.0000      -0.444354       -12.0915
 144   1.0000      -0.436540       -11.8789
 145   1.0000      -0.430528       -11.7153
 146   1.0000      -0.427053       -11.6207
 147   1.0000      -0.418310       -11.3828
 148   1.0000      -0.414379       -11.2758
 149   1.0000      -0.410774       -11.1777
 150   1.0000      -0.407319       -11.0837
 151   1.0000      -0.403337       -10.9754
 152   1.0000      -0.399955       -10.8833
 153   1.0000      -0.396564       -10.7910
 154   1.0000      -0.389899       -10.6097
 155   1.0000      -0.383643       -10.4394
 156   1.0000      -0.380363       -10.3502
 157   1.0000      -0.377124       -10.2621
 158   1.0000      -0.375243       -10.2109
 159   1.0000      -0.372198       -10.1280
 160   1.0000      -0.369982       -10.0677
 161   1.0000      -0.364383        -9.9154
 162   1.0000      -0.363273        -9.8851
 163   1.0000      -0.357301        -9.7226
 164   1.0000      -0.345471        -9.4007
 165   1.0000      -0.341584        -9.2950
 166   1.0000      -0.335447        -9.1280
 167   1.0000      -0.333207        -9.0670
 168   1.0000      -0.325644        -8.8612
 169   1.0000      -0.322961        -8.7882
 170   1.0000      -0.319120        -8.6837
 171   1.0000      -0.317152        -8.6301
 172   1.0000      -0.315489        -8.5849
 173   1.0000      -0.314112        -8.5474
 174   1.0000      -0.312525        -8.5042
 175   1.0000      -0.309961        -8.4345
 176   1.0000      -0.308317        -8.3897
 177   1.0000      -0.302131        -8.2214
 178   1.0000      -0.301092        -8.1931
 179   1.0000      -0.297551        -8.0968
 180   1.0000      -0.294588        -8.0161
 181   1.0000      -0.286954        -7.8084
 182   1.0000      -0.281352        -7.6560
 183   1.0000      -0.278170        -7.5694
 184   1.0000      -0.247122        -6.7245
 185   1.0000      -0.240249        -6.5375
 186   1.0000      -0.237195        -6.4544
 187   1.0000      -0.234841        -6.3904
 188   0.0000      -0.213381        -5.8064
 189   0.0000      -0.200733        -5.4622
 190   0.0000      -0.186921        -5.0864
 191   0.0000      -0.180750        -4.9185
 192   0.0000      -0.165185        -4.4949

MULLIKEN ATOMIC CHARGES AND SPIN POPULATIONS
--------------------------------------------
   0 C :   -0.049770   -0.002272
   1 N :   -0.184048   -0.000620
   2 H :    0.254853   -0.000137
   3 C :    0.007552   -0.001442
   4 H :    0.192685    0.000081
   5 N :   -0.038836   -0.020385
   6 C :   -0.112833   -0.000188
   7 H :    0.164648   -0.000130
   8 C :   -0.082938    0.002544
   9 N :   -0.193739    0.001294
  10 H :    0.245239    0.002638
  11 C :    0.020814    0.001821
  12 H :    0.174026    0.001076
  13 N :   -0.031207    0.056633
  14 C :   -0.109389   -0.000517
  15 H :    0.184784    0.003169
  16 C :   -0.388592   -0.003814
  17 H :    0.136699   -0.000380
  18 H :    0.145965    0.000009
  19 C :    0.418266    0.008969
  20 O :   -0.384739   -0.041632
  21 O :   -0.362326    0.001850
  22 C :   -0.045001   -0.000119
  23 N :   -0.197230    0.000023
  24 H :    0.255334    0.000094
  25 C :    0.049602    0.000046
  26 H :    0.161843   -0.000019
  27 N :   -0.092984   -0.008898
  28 C :   -0.127151   -0.000064
  29 H :    0.169566   -0.000197
  30 C :   -0.049490    0.001066
  31 N :   -0.195109   -0.000520
  32 H :    0.251609    0.000500
  33 C :    0.022780   -0.000880
  34 H :    0.191684    0.000106
  35 N :   -0.115446    0.002069
  36 C :   -0.154478    0.000245
  37 H :    0.214326   -0.000258
  38 C :   -0.373338    0.004280
  39 H :    0.122731    0.000138
  40 H :    0.143303    0.000521
  41 C :    0.364701    0.002636
  42 O :   -0.373174    0.020708
  43 O :   -0.485547    0.000103
  44 Fe:    0.380645    1.329975
  45 Fe:    0.361300    0.862579
  46 O :   -0.633225    0.029649
  47 H :    0.347938    0.001436
  48 C :    0.163779    0.011856
  49 C :   -0.021570   -0.006574
  50 C :    0.067209   -0.001968
  51 C :    0.014433   -0.000047
  52 C :    0.000557   -0.000701
  53 C :    0.028965    0.000286
  54 O :   -0.402143    0.047546
  55 O :   -0.420441   -0.000227
  56 O :   -0.384345   -0.001565
  57 O :   -0.359046   -0.000572
  58 O :   -0.406256    0.000395
  59 O :   -0.369213   -0.013467
  60 H :    0.109248    0.005791
  61 H :    0.106151    0.000527
  62 H :    0.089173    0.000298
  63 H :    0.085637    0.000049
  64 H :    0.096639    0.000124
  65 H :    0.087549   -0.000136
  66 H :    0.317362    0.000066
  67 H :    0.302824    0.000039
  68 H :    0.269553    0.000007
  69 H :    0.279180    0.000084
  70 H :    0.341361    0.003462
  71 O :   -0.046884   -0.642182
  72 O :   -0.077780   -0.658987
  73 H :    0.168622    0.000072
  74 H :    0.156456    0.001178
  75 H :    0.128756    0.000892
  76 H :    0.173999    0.000052
  77 H :    0.174861    0.000114
  78 H :    0.123062   -0.000198
Sum of atomic charges         :    1.0000000

LOEWDIN ATOMIC CHARGES AND SPIN POPULATIONS
-------------------------------------------
   0 C :   -0.220346   -0.001536
   1 N :    0.201317   -0.000617
   2 H :    0.212260   -0.000088
   3 C :   -0.261034   -0.002363
   4 H :    0.149965   -0.000101
   5 N :    0.195290   -0.010065
   6 C :   -0.211116   -0.001585
   7 H :    0.151057   -0.000263
   8 C :   -0.226732    0.002768
   9 N :    0.199363    0.002030
  10 H :    0.205481    0.001342
  11 C :   -0.269238    0.005644
  12 H :    0.141809    0.000403
  13 N :    0.195130    0.056310
  14 C :   -0.212524    0.003622
  15 H :    0.152562    0.000519
  16 C :   -0.265094   -0.002287
  17 H :    0.134580   -0.000325
  18 H :    0.147086   -0.000048
  19 C :   -0.545463    0.000687
  20 O :    0.157105   -0.032046
  21 O :    0.163294    0.007975
  22 C :   -0.211603   -0.000100
  23 N :    0.207649   -0.000043
  24 H :    0.210664    0.000040
  25 C :   -0.271929   -0.001441
  26 H :    0.138306   -0.000044
  27 N :    0.192181   -0.002202
  28 C :   -0.219968   -0.000187
  29 H :    0.147772   -0.000093
  30 C :   -0.215937    0.000786
  31 N :    0.204402   -0.000317
  32 H :    0.209659    0.000214
  33 C :   -0.276938   -0.000133
  34 H :    0.144400    0.000048
  35 N :    0.179523    0.006831
  36 C :   -0.214343    0.000136
  37 H :    0.152752   -0.000019
  38 C :   -0.279305    0.003005
  39 H :    0.140958    0.000125
  40 H :    0.136771    0.000228
  41 C :   -0.590915    0.004098
  42 O :    0.131701    0.024770
  43 O :   -0.007240   -0.000210
  44 Fe:   -0.138845    1.281808
  45 Fe:   -0.096648    0.833567
  46 O :   -0.084497    0.044282
  47 H :    0.153152    0.002073
  48 C :   -0.348910    0.008856
  49 C :   -0.327781   -0.004404
  50 C :   -0.335328   -0.000634
  51 C :   -0.326143   -0.000210
  52 C :   -0.339485   -0.000284
  53 C :   -0.297433    0.002956
  54 O :    0.075160    0.051422
  55 O :    0.005865   -0.000133
  56 O :    0.017775   -0.001450
  57 O :    0.017723   -0.000530
  58 O :    0.006293    0.000366
  59 O :    0.146338   -0.010404
  60 H :    0.158549    0.004764
  61 H :    0.146432    0.000051
  62 H :    0.150830    0.000088
  63 H :    0.147671    0.000028
  64 H :    0.150095    0.000052
  65 H :    0.147795   -0.000006
  66 H :    0.203854   -0.000045
  67 H :    0.198749   -0.000011
  68 H :    0.178017   -0.000010
  69 H :    0.178734    0.000070
  70 H :    0.223296    0.001861
  71 O :    0.044736   -0.633198
  72 O :    0.006511   -0.647400
  73 H :    0.145743   -0.000007
  74 H :    0.142605    0.000562
  75 H :    0.126994    0.000337
  76 H :    0.148699    0.000024
  77 H :    0.148550    0.000106
  78 H :    0.121592   -0.000019

  Mayer bond orders larger than 0.100000
B(  0-C ,  1-N ) :   1.1603 B(  0-C ,  6-C ) :   1.6024 B(  0-C , 73-H ) :   0.9383
B(  1-N ,  2-H ) :   0.9018 B(  1-N ,  3-C ) :   1.2846 B(  3-C ,  4-H ) :   0.9295
B(  3-C ,  5-N ) :   1.4458 B(  5-N ,  6-C ) :   1.2111 B(  5-N , 44-Fe) :   0.5944
B(  6-C ,  7-H ) :   0.9564 B(  8-C ,  9-N ) :   1.1648 B(  8-C , 11-C ) :   0.1010
B(  8-C , 14-C ) :   1.6079 B(  8-C , 74-H ) :   0.9441 B(  9-N , 10-H ) :   0.9051
B(  9-N , 11-C ) :   1.2877 B( 11-C , 12-H ) :   0.9368 B( 11-C , 13-N ) :   1.4849
B( 13-N , 14-C ) :   1.2358 B( 13-N , 44-Fe) :   0.4436 B( 14-C , 15-H ) :   0.9400
B( 16-C , 17-H ) :   0.9749 B( 16-C , 18-H ) :   0.9466 B( 16-C , 19-C ) :   0.9321
B( 16-C , 75-H ) :   0.9631 B( 19-C , 20-O ) :   1.4479 B( 19-C , 21-O ) :   1.5764
B( 20-O , 45-Fe) :   0.5576 B( 21-O , 44-Fe) :   0.4021 B( 22-C , 23-N ) :   1.1555
B( 22-C , 28-C ) :   1.6077 B( 22-C , 76-H ) :   0.9397 B( 23-N , 24-H ) :   0.9019
B( 23-N , 25-C ) :   1.3110 B( 25-C , 26-H ) :   0.9271 B( 25-C , 27-N ) :   1.4356
B( 27-N , 28-C ) :   1.2253 B( 27-N , 45-Fe) :   0.4898 B( 28-C , 29-H ) :   0.9530
B( 30-C , 31-N ) :   1.1661 B( 30-C , 36-C ) :   1.6273 B( 30-C , 77-H ) :   0.9345
B( 31-N , 32-H ) :   0.9030 B( 31-N , 33-C ) :   1.2961 B( 33-C , 34-H ) :   0.9337
B( 33-C , 35-N ) :   1.4483 B( 35-N , 36-C ) :   1.1837 B( 35-N , 45-Fe) :   0.5159
B( 36-C , 37-H ) :   0.9145 B( 38-C , 39-H ) :   0.9392 B( 38-C , 40-H ) :   0.9710
B( 38-C , 41-C ) :   0.9642 B( 38-C , 78-H ) :   0.9630 B( 41-C , 42-O ) :   1.4689
B( 41-C , 43-O ) :   1.6197 B( 42-O , 44-Fe) :   0.5234 B( 43-O , 47-H ) :   0.1783
B( 44-Fe, 45-Fe) :   0.1468 B( 44-Fe, 46-O ) :   0.5081 B( 44-Fe, 71-O ) :   0.6283
B( 44-Fe, 72-O ) :   0.5272 B( 45-Fe, 46-O ) :   0.6160 B( 45-Fe, 54-O ) :   0.9464
B( 45-Fe, 59-O ) :   0.3264 B( 46-O , 47-H ) :   0.7370 B( 48-C , 49-C ) :   0.8268
B( 48-C , 53-C ) :   0.9254 B( 48-C , 54-O ) :   0.9227 B( 48-C , 55-O ) :  -0.1367
B( 48-C , 60-H ) :   0.9330 B( 49-C , 50-C ) :   0.8897 B( 49-C , 55-O ) :   1.2394
B( 49-C , 61-H ) :   0.9501 B( 50-C , 51-C ) :   0.9264 B( 50-C , 56-O ) :   1.1061
B( 50-C , 62-H ) :   0.9508 B( 51-C , 52-C ) :   0.9512 B( 51-C , 57-O ) :   1.0611
B( 51-C , 63-H ) :   0.9537 B( 52-C , 53-C ) :   0.9196 B( 52-C , 58-O ) :   1.0496
B( 52-C , 64-H ) :   0.9606 B( 53-C , 59-O ) :   0.8099 B( 53-C , 65-H ) :   0.9483
B( 55-O , 66-H ) :   0.8843 B( 56-O , 67-H ) :   0.8868 B( 57-O , 68-H ) :   0.8882
B( 58-O , 69-H ) :   0.8798 B( 59-O , 70-H ) :   0.8473 B( 71-O , 72-O ) :   1.3376

FINAL SINGLE POINT ENERGY     -4803.443930373149

DIPOLE MOMENT
-------------
                                X             Y             Z
Electronic contribution:     -6.37039       7.11010      -5.73000
Nuclear contribution   :      2.82395      -8.54805       3.28465
                        -----------------------------------------
Total Dipole Moment    :     -3.54644      -1.43796      -2.44535
                        -----------------------------------------
Magnitude (a.u.)       :      4.54145
Magnitude (Debye)      :     11.54344

Rotational constants in cm-1:     0.002821     0.001898     0.001592
Rotational constants in MHz :    84.561491    56.909288    47.739255

                             ****ORCA TERMINATED NORMALLY****
TOTAL RUN TIME: 0 days 21 hours 34 minutes 3 seconds 68 msec
