                         Program Version 5.0.0 -  RELEASE  -
|  1> ! UHF def2-SVP pal8
|  2>
|  3> %scf
|  4> 	BrokenSym 1,1
|  5> end
|  6>
|  7> # C7H14 two-free radical brokensym 1,1
|  8>
|  9> *xyz 0 3
| 10>   C     -3.693788    1.345950   -0.080153
| 11>   C     -2.193484    1.373788   -0.056812
| 12>   H     -4.225508    1.180088   -1.010334
| 13>   H     -4.255204    1.224048    0.839301
| 14>   C     -1.554416   -0.023401   -0.016100
| 15>   H     -1.824927    1.905707   -0.939850
| 16>   H     -1.852812    1.944021    0.813355
| 17>   C     -0.027056    0.014500    0.007320
| 18>   H     -1.919913   -0.559214    0.866609
| 19>   H     -1.893486   -0.598246   -0.884715
| 20>   H      0.334747    0.551752   -0.877315
| 21>   H      0.305045    0.594496    0.874340
| 22>   C      0.609304   -1.374514    0.044919
| 23>   H      0.262703   -1.951369   -0.819054
| 24>   H      0.259278   -1.912060    0.933203
| 25>   C      2.147820   -1.364759    0.037560
| 26>   H      2.493149   -2.399801   -0.057561
| 27>   H      2.498336   -0.839762   -0.856087
| 28>   C      2.771544   -0.752033    1.258758
| 29>   H      3.140055    0.266294    1.257206
| 30>   H      2.687753   -1.251260    2.218099
| 31> *
| 32>
| 33>                          ****END OF INPUT****

CARTESIAN COORDINATES (ANGSTROEM)
---------------------------------
  C     -3.693788    1.345950   -0.080153
  C     -2.193484    1.373788   -0.056812
  H     -4.225508    1.180088   -1.010334
  H     -4.255204    1.224048    0.839301
  C     -1.554416   -0.023401   -0.016100
  H     -1.824927    1.905707   -0.939850
  H     -1.852812    1.944021    0.813355
  C     -0.027056    0.014500    0.007320
  H     -1.919913   -0.559214    0.866609
  H     -1.893486   -0.598246   -0.884715
  H      0.334747    0.551752   -0.877315
  H      0.305045    0.594496    0.874340
  C      0.609304   -1.374514    0.044919
  H      0.262703   -1.951369   -0.819054
  H      0.259278   -1.912060    0.933203
  C      2.147820   -1.364759    0.037560
  H      2.493149   -2.399801   -0.057561
  H      2.498336   -0.839762   -0.856087
  C      2.771544   -0.752033    1.258758
  H      3.140055    0.266294    1.257206
  H      2.687753   -1.251260    2.218099

 Total Charge           Charge          ....    0
 Multiplicity           Mult            ....    3
 Number of Electrons    NEL             ....   56
 Basis Dimension        Dim             ....  168

ORBITAL ENERGIES
----------------
                 SPIN UP ORBITALS
  NO   OCC          E(Eh)            E(eV)
   0   1.0000     -11.231477      -305.6240
   1   1.0000     -11.227022      -305.5028
   2   1.0000     -11.222596      -305.3823
   3   1.0000     -11.221413      -305.3502
   4   1.0000     -11.219737      -305.3046
   5   1.0000     -11.217907      -305.2548
   6   1.0000     -11.206018      -304.9312
   7   1.0000      -1.081702       -29.4346
   8   1.0000      -1.039409       -28.2838
   9   1.0000      -0.971105       -26.4251
  10   1.0000      -0.885260       -24.0891
  11   1.0000      -0.815204       -22.1828
  12   1.0000      -0.783798       -21.3282
  13   1.0000      -0.752841       -20.4858
  14   1.0000      -0.654455       -17.8086
  15   1.0000      -0.623641       -16.9701
  16   1.0000      -0.605118       -16.4661
  17   1.0000      -0.579760       -15.7761
  18   1.0000      -0.565400       -15.3853
  19   1.0000      -0.554102       -15.0779
  20   1.0000      -0.531113       -14.4523
  21   1.0000      -0.508762       -13.8441
  22   1.0000      -0.496607       -13.5134
  23   1.0000      -0.472945       -12.8695
  24   1.0000      -0.465562       -12.6686
  25   1.0000      -0.461874       -12.5682
  26   1.0000      -0.459783       -12.5113
  27   1.0000      -0.351944        -9.5769
  28   0.0000       0.139017         3.7828
  29   0.0000       0.183832         5.0023
  30   0.0000       0.196187         5.3385
  31   0.0000       0.205600         5.5947
  32   0.0000       0.210191         5.7196

                 SPIN DOWN ORBITALS
  NO   OCC          E(Eh)            E(eV)
   0   1.0000     -11.231719      -305.6306
   1   1.0000     -11.225885      -305.4719
   2   1.0000     -11.223585      -305.4093
   3   1.0000     -11.222121      -305.3694
   4   1.0000     -11.218823      -305.2797
   5   1.0000     -11.217659      -305.2480
   6   1.0000     -11.205725      -304.9233
   7   1.0000      -1.082000       -29.4427
   8   1.0000      -1.038727       -28.2652
   9   1.0000      -0.969428       -26.3795
  10   1.0000      -0.889910       -24.2157
  11   1.0000      -0.815367       -22.1873
  12   1.0000      -0.771318       -20.9886
  13   1.0000      -0.761150       -20.7119
  14   1.0000      -0.653486       -17.7822
  15   1.0000      -0.627396       -17.0723
  16   1.0000      -0.607550       -16.5323
  17   1.0000      -0.580577       -15.7983
  18   1.0000      -0.561995       -15.2927
  19   1.0000      -0.553086       -15.0502
  20   1.0000      -0.531732       -14.4692
  21   1.0000      -0.510084       -13.8801
  22   1.0000      -0.492719       -13.4076
  23   1.0000      -0.473748       -12.8913
  24   1.0000      -0.465671       -12.6715
  25   1.0000      -0.461310       -12.5529
  26   1.0000      -0.459489       -12.5033
  27   1.0000      -0.351944        -9.5769
  28   0.0000       0.145141         3.9495
  29   0.0000       0.179886         4.8950
  30   0.0000       0.197080         5.3628
  31   0.0000       0.205639         5.5957
  32   0.0000       0.207052         5.6342

MULLIKEN ATOMIC CHARGES AND SPIN POPULATIONS
--------------------------------------------
   0 C :   -0.102221    1.287954
   1 C :   -0.046801   -0.187885
   2 H :    0.053231   -0.093160
   3 H :    0.053331   -0.093166
   4 C :   -0.062874    0.050207
   5 H :    0.030964    0.016849
   6 H :    0.031223    0.016641
   7 C :   -0.060075    0.006770
   8 H :    0.022537   -0.001905
   9 H :    0.022049   -0.002102
  10 H :    0.018389   -0.001075
  11 H :    0.025662   -0.001537
  12 C :   -0.052624   -0.048587
  13 H :    0.024173   -0.002728
  14 H :    0.021875    0.002643
  15 C :   -0.032676    0.184285
  16 H :    0.037785   -0.029685
  17 H :    0.029814   -0.009333
  18 C :   -0.123289   -1.284029
  19 H :    0.057646    0.095763
  20 H :    0.051881    0.094081
Sum of atomic charges         :   -0.0000000

LOEWDIN ATOMIC CHARGES AND SPIN POPULATIONS
-------------------------------------------
   0 C :   -0.006548    1.005723
   1 C :   -0.039220   -0.046682
   2 H :    0.006080   -0.016403
   3 H :    0.006127   -0.016401
   4 C :   -0.019084    0.047685
   5 H :    0.016166    0.010849
   6 H :    0.016247    0.010709
   7 C :   -0.023071    0.003788
   8 H :    0.010256   -0.000581
   9 H :    0.009819   -0.000875
  10 H :    0.009729   -0.000404
  11 H :    0.010206   -0.002309
  12 C :   -0.018135   -0.044884
  13 H :    0.011149   -0.001648
  14 H :    0.009969    0.000800
  15 C :   -0.038323    0.049184
  16 H :    0.019297   -0.021533
  17 H :    0.015835   -0.004672
  18 C :   -0.008924   -1.006043
  19 H :    0.006713    0.016807
  20 H :    0.005713    0.016888

  Mayer bond orders larger than 0.100000
B(  0-C ,  1-C ) :   1.0124 B(  0-C ,  2-H ) :   0.9763 B(  0-C ,  3-H ) :   0.9763
B(  1-C ,  4-C ) :   1.0206 B(  1-C ,  5-H ) :   0.9739 B(  1-C ,  6-H ) :   0.9738
B(  4-C ,  7-C ) :   1.0305 B(  4-C ,  8-H ) :   0.9715 B(  4-C ,  9-H ) :   0.9720
B(  7-C , 10-H ) :   0.9706 B(  7-C , 11-H ) :   0.9702 B(  7-C , 12-C ) :   1.0160
B( 12-C , 13-H ) :   0.9738 B( 12-C , 14-H ) :   0.9713 B( 12-C , 15-C ) :   1.0417
B( 15-C , 16-H ) :   0.9774 B( 15-C , 17-H ) :   0.9746 B( 15-C , 18-C ) :   0.9963
B( 18-C , 19-H ) :   0.9767 B( 18-C , 20-H ) :   0.9757

FINAL SINGLE POINT ENERGY      -272.945038504035

DIPOLE MOMENT
-------------
                                X             Y             Z
Electronic contribution:      0.08504       0.14078      -0.00024
Nuclear contribution   :     -0.08888      -0.22844      -0.02714
                        -----------------------------------------
Total Dipole Moment    :     -0.00384      -0.08766      -0.02738
                        -----------------------------------------
Magnitude (a.u.)       :      0.09192
Magnitude (Debye)      :      0.23364

Rotational constants in cm-1:     0.281333     0.028707     0.027530
Rotational constants in MHz :  8434.155340   860.619249   825.340837

                             ****ORCA TERMINATED NORMALLY****
TOTAL RUN TIME: 0 days 0 hours 0 minutes 11 seconds 299 msec
