 Gaussian 16, Revision A.03,
 Gaussian 16:  ES64L-G16RevA.03 25-Dec-2016

 -------------------------------------
 #p RHF/aug-cc-pVQZ guess=read CCSD=FC
 -------------------------------------

 ----------------------
 BH RHF at 0.9 Angstrom
 ----------------------
 Symbolic Z-matrix:
 Charge =  0 Multiplicity = 1

                         Standard orientation:
 ---------------------------------------------------------------------
 Center     Atomic      Atomic             Coordinates (Angstroms)
 Number     Number       Type             X           Y           Z
 ---------------------------------------------------------------------
      1          5           0        0.000000    0.000000    0.150000
      2          1           0        0.000000    0.000000   -0.750000
 ---------------------------------------------------------------------

 SCF Done:  E(RHF) =  -25.0597383632     A.U. after    1 cycles
 E2 =    -0.7835807662D-01 EUMP2 =    -0.25138096439815D+02

 The electronic state is 1-SG.
 Alpha  occ. eigenvalues --   -7.64826  -0.74828  -0.34027
 Alpha virt. eigenvalues --    0.02479   0.02479   0.02772   0.04449   0.07945
 Alpha virt. eigenvalues --    0.07945   0.11984   0.13197   0.13197   0.14402
 Alpha virt. eigenvalues --    0.14531   0.14531   0.17693   0.27095   0.27095

 Mulliken charges:
               1
     1  B   -0.029217
     2  H    0.029217
 Sum of Mulliken charges =  -0.00000

 Dipole moment (field-independent basis, Debye):
    X=              0.0000    Y=              0.0000    Z=             -2.5150  Tot=              2.5150
 Quadrupole moment (field-independent basis, Debye-Ang):
   XX=             -6.5407   YY=             -6.5407   ZZ=            -10.1286
   XY=              0.0000   XZ=              0.0000   YZ=              0.0000

 Normal termination of Gaussian 16 at Sun May 22 15:50:54 2022.
