 Gaussian 16, Revision A.03,
 Gaussian 16:  ES64L-G16RevA.03 25-Dec-2016

 ------------------
 #p RHF/aug-cc-pVQZ
 ------------------

 ----------------------
 BH RHF at 0.8 Angstrom
 ----------------------
 Symbolic Z-matrix:
 Charge =  0 Multiplicity = 1

                         Standard orientation:
 ---------------------------------------------------------------------
 Center     Atomic      Atomic             Coordinates (Angstroms)
 Number     Number       Type             X           Y           Z
 ---------------------------------------------------------------------
      1          5           0        0.000000    0.000000    0.133333
      2          1           0        0.000000    0.000000   -0.666667
 ---------------------------------------------------------------------

 SCF Done:  E(RHF) =  -24.9783347751     A.U. after    9 cycles

 The electronic state is 1-SG.
 Alpha  occ. eigenvalues --   -7.64397  -0.77976  -0.33954
 Alpha virt. eigenvalues --    0.02480   0.02480   0.02693   0.04400   0.07883
 Alpha virt. eigenvalues --    0.07883   0.12232   0.13138   0.13138   0.14047
 Alpha virt. eigenvalues --    0.14512   0.14512   0.17338   0.26708   0.26708

 Mulliken charges:
               1
     1  B   -0.112292
     2  H    0.112292
 Sum of Mulliken charges =   0.00000

 Dipole moment (field-independent basis, Debye):
    X=              0.0000    Y=              0.0000    Z=             -2.6385  Tot=              2.6385
 Quadrupole moment (field-independent basis, Debye-Ang):
   XX=             -6.4810   YY=             -6.4810   ZZ=             -9.9299
   XY=              0.0000   XZ=              0.0000   YZ=              0.0000

 Normal termination of Gaussian 16 at Sun May 22 15:45:33 2022.
