                         Program Version 5.0.0 -  RELEASE  -
|  1> ! RHF CCSD aug-cc-pVQZ VeryTightSCF
|  2>
|  3> *xyz 0 1
|  4>  B	0.0	0.0	0.0
|  5>  H	0.9	0.0	0.0
|  6> **                         ****END OF INPUT****

CARTESIAN COORDINATES (ANGSTROEM)
---------------------------------
  B      0.000000    0.000000    0.000000
  H      0.900000    0.000000    0.000000

 Total Charge           Charge          ....    0
 Multiplicity           Mult            ....    1
 Number of Electrons    NEL             ....    6
 Basis Dimension        Dim             ....  126

ORBITAL ENERGIES
----------------

  NO   OCC          E(Eh)            E(eV)
   0   2.0000      -7.648266      -208.1199
   1   2.0000      -0.748277       -20.3616
   2   2.0000      -0.340267        -9.2591
   3   0.0000       0.024789         0.6745
   4   0.0000       0.024789         0.6745
   5   0.0000       0.027725         0.7544
   6   0.0000       0.044485         1.2105
   7   0.0000       0.079447         2.1619

E(0)                                       ...    -25.059738584
E(0)                                       ...    -25.059738584
E(CORR)                                    ...     -0.100380810
E(TOT)                                     ...    -25.160119395

MULLIKEN ATOMIC CHARGES
-----------------------
   0 B :   -0.003364
   1 H :    0.003364
Sum of atomic charges:    0.0000000

LOEWDIN ATOMIC CHARGES
----------------------
   0 B :    0.676068
   1 H :   -0.676068

  Mayer bond orders larger than 0.100000
B(  0-B ,  1-H ) :   0.7993

FINAL SINGLE POINT ENERGY       -25.160119394736

DIPOLE MOMENT
-------------
                                X             Y             Z
Electronic contribution:      0.01383      -0.00000       0.00000
Nuclear contribution   :      0.83037       0.00000       0.00000
                        -----------------------------------------
Total Dipole Moment    :      0.84420      -0.00000       0.00000
                        -----------------------------------------
Magnitude (a.u.)       :      0.84420
Magnitude (Debye)      :      2.14578

Rotational constants in cm-1:     0.000000    22.571979    22.571979
Rotational constants in MHz :     0.000000 676690.913138 676690.913138

                             ****ORCA TERMINATED NORMALLY****
TOTAL RUN TIME: 0 days 0 hours 0 minutes 43 seconds 607 msec
