 Gaussian 16, Revision A.03,
 Gaussian 16:  ES64L-G16RevA.03 25-Dec-2016

 -------------------------------------
 #p RHF/aug-cc-pVQZ guess=read CCSD=FC
 -------------------------------------

 ----------------------
 BH RHF at 1.8 Angstrom
 ----------------------
 Symbolic Z-matrix:
 Charge =  0 Multiplicity = 1

                         Standard orientation:
 ---------------------------------------------------------------------
 Center     Atomic      Atomic             Coordinates (Angstroms)
 Number     Number       Type             X           Y           Z
 ---------------------------------------------------------------------
      1          5           0        0.000000    0.000000    0.300000
      2          1           0        0.000000    0.000000   -1.500000
 ---------------------------------------------------------------------

 SCF Done:  E(RHF) =  -25.0743797577     A.U. after    1 cycles
 E2 =    -0.8227015182D-01 EUMP2 =    -0.25156649909529D+02

 The electronic state is 1-SG.
 Alpha  occ. eigenvalues --   -7.75676  -0.56146  -0.34727
 Alpha virt. eigenvalues --    0.01673   0.01673   0.03175   0.05037   0.06977
 Alpha virt. eigenvalues --    0.06977   0.09723   0.12037   0.14005   0.14005
 Alpha virt. eigenvalues --    0.14316   0.14316   0.20392   0.23380   0.27192

 Mulliken charges:
               1
     1  B    0.170836
     2  H   -0.170836
 Sum of Mulliken charges =  -0.00000

 Dipole moment (field-independent basis, Debye):
    X=              0.0000    Y=              0.0000    Z=              0.4239  Tot=              0.4239
 Quadrupole moment (field-independent basis, Debye-Ang):
   XX=             -7.2998   YY=             -7.2998   ZZ=            -12.0873
   XY=              0.0000   XZ=              0.0000   YZ=              0.0000

 Normal termination of Gaussian 16 at Sun May 22 15:47:14 2022.
