                         Program Version 5.0.0 -  RELEASE  -
|  1> ! RHF CCSD aug-cc-pVQZ VeryTightSCF
|  2>
|  3> *xyz 0 1
|  4>  B	0.0	0.0	0.0
|  5>  H	1.3	0.0	0.0
|  6> **                         ****END OF INPUT****

CARTESIAN COORDINATES (ANGSTROEM)
---------------------------------
  B      0.000000    0.000000    0.000000
  H      1.300000    0.000000    0.000000

 Total Charge           Charge          ....    0
 Multiplicity           Mult            ....    1
 Number of Electrons    NEL             ....    6
 Basis Dimension        Dim             ....  126

ORBITAL ENERGIES
----------------

  NO   OCC          E(Eh)            E(eV)
   0   2.0000      -7.694649      -209.3821
   1   2.0000      -0.632546       -17.2125
   2   2.0000      -0.349987        -9.5236
   3   0.0000       0.023613         0.6425
   4   0.0000       0.023613         0.6425
   5   0.0000       0.031441         0.8556
   6   0.0000       0.045877         1.2484
   7   0.0000       0.078071         2.1244

E(0)                                       ...    -25.129262225
E(0)                                       ...    -25.129262225
E(CORR)                                    ...     -0.102407200
E(TOT)                                     ...    -25.231669425

MULLIKEN ATOMIC CHARGES
-----------------------
   0 B :    0.114638
   1 H :   -0.114638
Sum of atomic charges:   -0.0000000

LOEWDIN ATOMIC CHARGES
----------------------
   0 B :    0.463217
   1 H :   -0.463217

  Mayer bond orders larger than 0.100000
B(  0-B ,  1-H ) :   0.8656

FINAL SINGLE POINT ENERGY       -25.231669425128

DIPOLE MOMENT
-------------
                                X             Y             Z
Electronic contribution:     -0.72601       0.00000      -0.00000
Nuclear contribution   :      1.19943       0.00000       0.00000
                        -----------------------------------------
Total Dipole Moment    :      0.47342       0.00000      -0.00000
                        -----------------------------------------
Magnitude (a.u.)       :      0.47342
Magnitude (Debye)      :      1.20334

Rotational constants in cm-1:     0.000000    10.818523    10.818523
Rotational constants in MHz :     0.000000 324331.147717 324331.147717

                             ****ORCA TERMINATED NORMALLY****
TOTAL RUN TIME: 0 days 0 hours 0 minutes 45 seconds 184 msec
