 Gaussian 16, Revision A.03,
 Gaussian 16:  ES64L-G16RevA.03 25-Dec-2016

 -------------------------------------
 #p RHF/aug-cc-pVQZ guess=read CCSD=FC
 -------------------------------------

 ----------------------
 BH RHF at 1.3 Angstrom
 ----------------------
 Symbolic Z-matrix:
 Charge =  0 Multiplicity = 1

                         Standard orientation:
 ---------------------------------------------------------------------
 Center     Atomic      Atomic             Coordinates (Angstroms)
 Number     Number       Type             X           Y           Z
 ---------------------------------------------------------------------
      1          5           0        0.000000    0.000000    0.216667
      2          1           0        0.000000    0.000000   -1.083333
 ---------------------------------------------------------------------

 SCF Done:  E(RHF) =  -25.1292620379     A.U. after    1 cycles
 E2 =    -0.7891397213D-01 EUMP2 =    -0.25208176010020D+02

 The electronic state is 1-SG.
 Alpha  occ. eigenvalues --   -7.69465  -0.63255  -0.34999
 Alpha virt. eigenvalues --    0.02361   0.02361   0.03144   0.04588   0.07807
 Alpha virt. eigenvalues --    0.07807   0.10918   0.13619   0.13619   0.14520
 Alpha virt. eigenvalues --    0.14520   0.14995   0.19200   0.25845   0.27221

 Mulliken charges:
               1
     1  B    0.134753
     2  H   -0.134753
 Sum of Mulliken charges =   0.00000

 Dipole moment (field-independent basis, Debye):
    X=              0.0000    Y=              0.0000    Z=             -1.5274  Tot=              1.5274
 Quadrupole moment (field-independent basis, Debye-Ang):
   XX=             -6.8069   YY=             -6.8069   ZZ=            -10.8259
   XY=              0.0000   XZ=              0.0000   YZ=              0.0000

 Normal termination of Gaussian 16 at Sun May 22 16:02:46 2022.
