 Gaussian 16, Revision A.03,
 Gaussian 16:  ES64L-G16RevA.03 25-Dec-2016

 -------------------------------------
 #p RHF/aug-cc-pVQZ guess=read CCSD=FC
 -------------------------------------

 ----------------------
 BH RHF at 1.4 Angstrom
 ----------------------
 Symbolic Z-matrix:
 Charge =  0 Multiplicity = 1

                         Standard orientation:
 ---------------------------------------------------------------------
 Center     Atomic      Atomic             Coordinates (Angstroms)
 Number     Number       Type             X           Y           Z
 ---------------------------------------------------------------------
      1          5           0        0.000000    0.000000    0.233333
      2          1           0        0.000000    0.000000   -1.166667
 ---------------------------------------------------------------------

 SCF Done:  E(RHF) =  -25.1220217805     A.U. after    1 cycles
 E2 =    -0.7942815753D-01 EUMP2 =    -0.25201449938072D+02

 The electronic state is 1-SG.
 Alpha  occ. eigenvalues --   -7.70764  -0.61088  -0.35195
 Alpha virt. eigenvalues --    0.02283   0.02283   0.03213   0.04634   0.07686
 Alpha virt. eigenvalues --    0.07686   0.10659   0.13726   0.13726   0.14498
 Alpha virt. eigenvalues --    0.14498   0.14788   0.19616   0.25202   0.27112

 Mulliken charges:
               1
     1  B    0.150016
     2  H   -0.150016
 Sum of Mulliken charges =   0.00000

 Dipole moment (field-independent basis, Debye):
    X=              0.0000    Y=              0.0000    Z=             -1.1835  Tot=              1.1835
 Quadrupole moment (field-independent basis, Debye-Ang):
   XX=             -6.8915   YY=             -6.8915   ZZ=            -11.0191
   XY=              0.0000   XZ=              0.0000   YZ=              0.0000

 Normal termination of Gaussian 16 at Sun May 22 15:51:11 2022.
