                         Program Version 5.0.0 -  RELEASE  -
|  1> ! RHF CCSD aug-cc-pVQZ VeryTightSCF
|  2>
|  3> *xyz 0 1
|  4>  B	0.0	0.0	0.0
|  5>  H	1.2	0.0	0.0
|  6> **                         ****END OF INPUT****

CARTESIAN COORDINATES (ANGSTROEM)
---------------------------------
  B      0.000000    0.000000    0.000000
  H      1.200000    0.000000    0.000000

 Total Charge           Charge          ....    0
 Multiplicity           Mult            ....    1
 Number of Electrons    NEL             ....    6
 Basis Dimension        Dim             ....  126

ORBITAL ENERGIES
----------------

  NO   OCC          E(Eh)            E(eV)
   0   2.0000      -7.681657      -209.0285
   1   2.0000      -0.657652       -17.8956
   2   2.0000      -0.347415        -9.4536
   3   0.0000       0.024160         0.6574
   4   0.0000       0.024160         0.6574
   5   0.0000       0.030574         0.8320
   6   0.0000       0.045528         1.2389
   7   0.0000       0.078962         2.1487

E(0)                                       ...    -25.131266934
E(0)                                       ...    -25.131266934
E(CORR)                                    ...     -0.101452905
E(TOT)                                     ...    -25.232719839

MULLIKEN ATOMIC CHARGES
-----------------------
   0 B :    0.100252
   1 H :   -0.100252
Sum of atomic charges:   -0.0000000

LOEWDIN ATOMIC CHARGES
----------------------
   0 B :    0.507176
   1 H :   -0.507176

  Mayer bond orders larger than 0.100000
B(  0-B ,  1-H ) :   0.8580

FINAL SINGLE POINT ENERGY       -25.232719839293

DIPOLE MOMENT
-------------
                                X             Y             Z
Electronic contribution:     -0.52026      -0.00000      -0.00000
Nuclear contribution   :      1.10716       0.00000       0.00000
                        -----------------------------------------
Total Dipole Moment    :      0.58691      -0.00000      -0.00000
                        -----------------------------------------
Magnitude (a.u.)       :      0.58691
Magnitude (Debye)      :      1.49180

Rotational constants in cm-1:     0.000000    12.696738    12.696738
Rotational constants in MHz :     0.000000 380638.638640 380638.638640

                             ****ORCA TERMINATED NORMALLY****
TOTAL RUN TIME: 0 days 0 hours 0 minutes 44 seconds 373 msec
