 Gaussian 16, Revision A.03,
 Gaussian 16:  ES64L-G16RevA.03 25-Dec-2016

 -------------------------------------
 #p RHF/aug-cc-pVQZ guess=read CCSD=FC
 -------------------------------------

 ----------------------
 BH RHF at 1.2 Angstrom
 ----------------------
 Symbolic Z-matrix:
 Charge =  0 Multiplicity = 1

                         Standard orientation:
 ---------------------------------------------------------------------
 Center     Atomic      Atomic             Coordinates (Angstroms)
 Number     Number       Type             X           Y           Z
 ---------------------------------------------------------------------
      1          5           0        0.000000    0.000000    0.200000
      2          1           0        0.000000    0.000000   -1.000000
 ---------------------------------------------------------------------

 SCF Done:  E(RHF) =  -25.1312667385     A.U. after    1 cycles
 E2 =    -0.7852139607D-01 EUMP2 =    -0.25209788134599D+02

 The electronic state is 1-SG.
 Alpha  occ. eigenvalues --   -7.68165  -0.65765  -0.34741
 Alpha virt. eigenvalues --    0.02416   0.02416   0.03057   0.04553   0.07896
 Alpha virt. eigenvalues --    0.07896   0.11183   0.13505   0.13505   0.14533
 Alpha virt. eigenvalues --    0.14533   0.15034   0.18806   0.26433   0.27330

 Mulliken charges:
               1
     1  B    0.110937
     2  H   -0.110937
 Sum of Mulliken charges =   0.00000

 Dipole moment (field-independent basis, Debye):
    X=              0.0000    Y=              0.0000    Z=             -1.8373  Tot=              1.8373
 Quadrupole moment (field-independent basis, Debye-Ang):
   XX=             -6.7304   YY=             -6.7304   ZZ=            -10.6489
   XY=              0.0000   XZ=              0.0000   YZ=              0.0000

 Normal termination of Gaussian 16 at Sun May 22 16:02:43 2022.
