                         Program Version 5.0.0 -  RELEASE  -
|  1> ! RHF CCSD aug-cc-pVQZ VeryTightSCF
|  2>
|  3> *xyz 0 1
|  4>  B	0.0	0.0	0.0
|  5>  H	1.6	0.0	0.0
|  6> **                         ****END OF INPUT****

CARTESIAN COORDINATES (ANGSTROEM)
---------------------------------
  B      0.000000    0.000000    0.000000
  H      1.600000    0.000000    0.000000

 Total Charge           Charge          ....    0
 Multiplicity           Mult            ....    1
 Number of Electrons    NEL             ....    6
 Basis Dimension        Dim             ....  126

ORBITAL ENERGIES
----------------

  NO   OCC          E(Eh)            E(eV)
   0   2.0000      -7.732940      -210.4240
   1   2.0000      -0.578761       -15.7489
   2   2.0000      -0.352540        -9.5931
   3   0.0000       0.020419         0.5556
   4   0.0000       0.020419         0.5556
   5   0.0000       0.032662         0.8888
   6   0.0000       0.047918         1.3039
   7   0.0000       0.073640         2.0039

E(0)                                       ...    -25.099848469
E(0)                                       ...    -25.099848469
E(CORR)                                    ...     -0.106694349
E(TOT)                                     ...    -25.206542818

MULLIKEN ATOMIC CHARGES
-----------------------
   0 B :    0.124311
   1 H :   -0.124311
Sum of atomic charges:    0.0000000

LOEWDIN ATOMIC CHARGES
----------------------
   0 B :    0.352296
   1 H :   -0.352296

  Mayer bond orders larger than 0.100000
B(  0-B ,  1-H ) :   0.8601

FINAL SINGLE POINT ENERGY       -25.206542818217

DIPOLE MOMENT
-------------
                                X             Y             Z
Electronic contribution:     -1.37779       0.00000      -0.00000
Nuclear contribution   :      1.47622       0.00000       0.00000
                        -----------------------------------------
Total Dipole Moment    :      0.09843       0.00000      -0.00000
                        -----------------------------------------
Magnitude (a.u.)       :      0.09843
Magnitude (Debye)      :      0.25019

Rotational constants in cm-1:     0.000000     7.141915     7.141915
Rotational constants in MHz :     0.000000 214109.234235 214109.234235

                             ****ORCA TERMINATED NORMALLY****
TOTAL RUN TIME: 0 days 0 hours 0 minutes 45 seconds 943 msec
