                         Program Version 5.0.0 -  RELEASE  -
|  1> ! RHF CCSD aug-cc-pVQZ VeryTightSCF
|  2>
|  3> *xyz 0 1
|  4>  B	0.0	0.0	0.0
|  5>  H	1.4	0.0	0.0
|  6> **                         ****END OF INPUT****

CARTESIAN COORDINATES (ANGSTROEM)
---------------------------------
  B      0.000000    0.000000    0.000000
  H      1.400000    0.000000    0.000000

 Total Charge           Charge          ....    0
 Multiplicity           Mult            ....    1
 Number of Electrons    NEL             ....    6
 Basis Dimension        Dim             ....  126

ORBITAL ENERGIES
----------------

  NO   OCC          E(Eh)            E(eV)
   0   2.0000      -7.707646      -209.7357
   1   2.0000      -0.610881       -16.6229
   2   2.0000      -0.351951        -9.5771
   3   0.0000       0.022830         0.6212
   4   0.0000       0.022830         0.6212
   5   0.0000       0.032133         0.8744
   6   0.0000       0.046344         1.2611
   7   0.0000       0.076858         2.0914

E(0)                                       ...    -25.122021959
E(0)                                       ...    -25.122021959
E(CORR)                                    ...     -0.103614877
E(TOT)                                     ...    -25.225636836

MULLIKEN ATOMIC CHARGES
-----------------------
   0 B :    0.122128
   1 H :   -0.122128
Sum of atomic charges:   -0.0000000

LOEWDIN ATOMIC CHARGES
----------------------
   0 B :    0.422874
   1 H :   -0.422874

  Mayer bond orders larger than 0.100000
B(  0-B ,  1-H ) :   0.8692

FINAL SINGLE POINT ENERGY       -25.225636835726

DIPOLE MOMENT
-------------
                                X             Y             Z
Electronic contribution:     -0.94024       0.00000      -0.00000
Nuclear contribution   :      1.29169       0.00000       0.00000
                        -----------------------------------------
Total Dipole Moment    :      0.35145       0.00000      -0.00000
                        -----------------------------------------
Magnitude (a.u.)       :      0.35145
Magnitude (Debye)      :      0.89331

Rotational constants in cm-1:     0.000000     9.328216     9.328216
Rotational constants in MHz :     0.000000 279652.877368 279652.877368

                             ****ORCA TERMINATED NORMALLY****
TOTAL RUN TIME: 0 days 0 hours 0 minutes 43 seconds 406 msec
