 Gaussian 16, Revision A.03,
 Gaussian 16:  ES64L-G16RevA.03 25-Dec-2016

 -------------------------------------
 #p RHF/aug-cc-pVQZ guess=read CCSD=FC
 -------------------------------------

 ----------------------
 BH RHF at 1.6 Angstrom
 ----------------------
 Symbolic Z-matrix:
 Charge =  0 Multiplicity = 1

                         Standard orientation:
 ---------------------------------------------------------------------
 Center     Atomic      Atomic             Coordinates (Angstroms)
 Number     Number       Type             X           Y           Z
 ---------------------------------------------------------------------
      1          5           0        0.000000    0.000000    0.266667
      2          1           0        0.000000    0.000000   -1.333333
 ---------------------------------------------------------------------

 SCF Done:  E(RHF) =  -25.0998482999     A.U. after    1 cycles
 E2 =    -0.8072895696D-01 EUMP2 =    -0.25180577256906D+02

 The electronic state is 1-SG.
 Alpha  occ. eigenvalues --   -7.73294  -0.57876  -0.35254
 Alpha virt. eigenvalues --    0.02042   0.02042   0.03266   0.04792   0.07364
 Alpha virt. eigenvalues --    0.07364   0.10169   0.13796   0.13900   0.13900
 Alpha virt. eigenvalues --    0.14427   0.14427   0.20411   0.23822   0.27050

 Mulliken charges:
               1
     1  B    0.164036
     2  H   -0.164036
 Sum of Mulliken charges =  -0.00000

 Dipole moment (field-independent basis, Debye):
    X=              0.0000    Y=              0.0000    Z=             -0.4146  Tot=              0.4146
 Quadrupole moment (field-independent basis, Debye-Ang):
   XX=             -7.0835   YY=             -7.0835   ZZ=            -11.4831
   XY=              0.0000   XZ=              0.0000   YZ=              0.0000

 Normal termination of Gaussian 16 at Sun May 22 15:51:16 2022.
