                         Program Version 5.0.0 -  RELEASE  -
|  1> ! RHF CCSD aug-cc-pVQZ VeryTightSCF
|  2>
|  3> *xyz 0 1
|  4>  B	0.0	0.0	0.0
|  5>  H	1.1	0.0	0.0
|  6> **                         ****END OF INPUT****

CARTESIAN COORDINATES (ANGSTROEM)
---------------------------------
  B      0.000000    0.000000    0.000000
  H      1.100000    0.000000    0.000000

 Total Charge           Charge          ....    0
 Multiplicity           Mult            ....    1
 Number of Electrons    NEL             ....    6
 Basis Dimension        Dim             ....  126

ORBITAL ENERGIES
----------------

  NO   OCC          E(Eh)            E(eV)
   0   2.0000      -7.669036      -208.6851
   1   2.0000      -0.685795       -18.6614
   2   2.0000      -0.344656        -9.3786
   3   0.0000       0.024512         0.6670
   4   0.0000       0.024512         0.6670
   5   0.0000       0.029616         0.8059
   6   0.0000       0.045217         1.2304
   7   0.0000       0.079501         2.1633

E(0)                                       ...    -25.124567302
E(0)                                       ...    -25.124567302
E(CORR)                                    ...     -0.100777918
E(TOT)                                     ...    -25.225345220

MULLIKEN ATOMIC CHARGES
-----------------------
   0 B :    0.075825
   1 H :   -0.075825
Sum of atomic charges:   -0.0000000

LOEWDIN ATOMIC CHARGES
----------------------
   0 B :    0.555556
   1 H :   -0.555556

  Mayer bond orders larger than 0.100000
B(  0-B ,  1-H ) :   0.8477

FINAL SINGLE POINT ENERGY       -25.225345220435

DIPOLE MOMENT
-------------
                                X             Y             Z
Electronic contribution:     -0.32643       0.00000      -0.00000
Nuclear contribution   :      1.01490       0.00000       0.00000
                        -----------------------------------------
Total Dipole Moment    :      0.68847       0.00000      -0.00000
                        -----------------------------------------
Magnitude (a.u.)       :      0.68847
Magnitude (Debye)      :      1.74995

Rotational constants in cm-1:     0.000000    15.110168    15.110168
Rotational constants in MHz :     0.000000 452991.437720 452991.437720

                             ****ORCA TERMINATED NORMALLY****
TOTAL RUN TIME: 0 days 0 hours 0 minutes 44 seconds 52 msec
