                         Program Version 5.0.0 -  RELEASE  -
|  1> ! RHF CCSD aug-cc-pVQZ VeryTightSCF
|  2>
|  3> *xyz 0 1
|  4>  B	0.0	0.0	0.0
|  5>  H	2.0	0.0	0.0
|  6> **                         ****END OF INPUT****

CARTESIAN COORDINATES (ANGSTROEM)
---------------------------------
  B      0.000000    0.000000    0.000000
  H      2.000000    0.000000    0.000000

 Total Charge           Charge          ....    0
 Multiplicity           Mult            ....    1
 Number of Electrons    NEL             ....    6
 Basis Dimension        Dim             ....  126

ORBITAL ENERGIES
----------------

  NO   OCC          E(Eh)            E(eV)
   0   2.0000      -7.778783      -211.6715
   1   2.0000      -0.556279       -15.1371
   2   2.0000      -0.336821        -9.1654
   3   0.0000       0.011760         0.3200
   4   0.0000       0.011760         0.3200
   5   0.0000       0.029294         0.7971
   6   0.0000       0.052963         1.4412
   7   0.0000       0.065773         1.7898

E(0)                                       ...    -25.049397233
E(0)                                       ...    -25.049397233
E(CORR)                                    ...     -0.114996483
E(TOT)                                     ...    -25.164393717

MULLIKEN ATOMIC CHARGES
-----------------------
   0 B :    0.110065
   1 H :   -0.110065
Sum of atomic charges:   -0.0000000

LOEWDIN ATOMIC CHARGES
----------------------
   0 B :    0.240415
   1 H :   -0.240415

  Mayer bond orders larger than 0.100000
B(  0-B ,  1-H ) :   0.7557

FINAL SINGLE POINT ENERGY       -25.164393716553

DIPOLE MOMENT
-------------
                                X             Y             Z
Electronic contribution:     -2.16293      -0.00000      -0.00000
Nuclear contribution   :      1.84527       0.00000       0.00000
                        -----------------------------------------
Total Dipole Moment    :     -0.31766      -0.00000      -0.00000
                        -----------------------------------------
Magnitude (a.u.)       :      0.31766
Magnitude (Debye)      :      0.80742

Rotational constants in cm-1:     0.000000     4.570826     4.570826
Rotational constants in MHz :     0.000000 137029.909910 137029.909910

                             ****ORCA TERMINATED NORMALLY****
TOTAL RUN TIME: 0 days 0 hours 0 minutes 48 seconds 339 msec
