                         Program Version 5.0.0 -  RELEASE  -
|  1> ! RHF CCSD aug-cc-pVQZ VeryTightSCF
|  2>
|  3> *xyz 0 1
|  4>  B	0.0	0.0	0.0
|  5>  H	2.6	0.0	0.0
|  6> **                         ****END OF INPUT****

CARTESIAN COORDINATES (ANGSTROEM)
---------------------------------
  B      0.000000    0.000000    0.000000
  H      2.600000    0.000000    0.000000

 Total Charge           Charge          ....    0
 Multiplicity           Mult            ....    1
 Number of Electrons    NEL             ....    6
 Basis Dimension        Dim             ....  126

ORBITAL ENERGIES
----------------

  NO   OCC          E(Eh)            E(eV)
   0   2.0000      -7.831917      -213.1173
   1   2.0000      -0.573888       -15.6163
   2   2.0000      -0.296828        -8.0771
   3   0.0000      -0.007923        -0.2156
   4   0.0000      -0.007923        -0.2156
   5   0.0000       0.005309         0.1445
   6   0.0000       0.041573         1.1313
   7   0.0000       0.055860         1.5200

E(0)                                       ...    -24.986605933
E(0)                                       ...    -24.986605933
E(CORR)                                    ...     -0.132245736
E(TOT)                                     ...    -25.118851669

MULLIKEN ATOMIC CHARGES
-----------------------
   0 B :    0.029884
   1 H :   -0.029884
Sum of atomic charges:   -0.0000000

LOEWDIN ATOMIC CHARGES
----------------------
   0 B :    0.078694
   1 H :   -0.078694

  Mayer bond orders larger than 0.100000
B(  0-B ,  1-H ) :   0.4064

FINAL SINGLE POINT ENERGY       -25.118851669071

DIPOLE MOMENT
-------------
                                X             Y             Z
Electronic contribution:     -2.64938      -0.00000       0.00000
Nuclear contribution   :      2.39886       0.00000       0.00000
                        -----------------------------------------
Total Dipole Moment    :     -0.25053      -0.00000       0.00000
                        -----------------------------------------
Magnitude (a.u.)       :      0.25053
Magnitude (Debye)      :      0.63679

Rotational constants in cm-1:     0.000000     2.704631     2.704631
Rotational constants in MHz :     0.000000 81082.786929 81082.786929

                             ****ORCA TERMINATED NORMALLY****
TOTAL RUN TIME: 0 days 0 hours 0 minutes 48 seconds 710 msec
