                         Program Version 5.0.0 -  RELEASE  -
|  1> ! RHF CCSD aug-cc-pVQZ VeryTightSCF
|  2>
|  3> *xyz 0 1
|  4>  B	0.0	0.0	0.0
|  5>  H	2.2	0.0	0.0
|  6> **                         ****END OF INPUT****

CARTESIAN COORDINATES (ANGSTROEM)
---------------------------------
  B      0.000000    0.000000    0.000000
  H      2.200000    0.000000    0.000000

 Total Charge           Charge          ....    0
 Multiplicity           Mult            ....    1
 Number of Electrons    NEL             ....    6
 Basis Dimension        Dim             ....  126

ORBITAL ENERGIES
----------------

  NO   OCC          E(Eh)            E(eV)
   0   2.0000      -7.798726      -212.2141
   1   2.0000      -0.558908       -15.2087
   2   2.0000      -0.323619        -8.8061
   3   0.0000       0.005730         0.1559
   4   0.0000       0.005730         0.1559
   5   0.0000       0.024854         0.6763
   6   0.0000       0.053900         1.4667
   7   0.0000       0.062031         1.6879

E(0)                                       ...    -25.026253167
E(0)                                       ...    -25.026253167
E(CORR)                                    ...     -0.120086860
E(TOT)                                     ...    -25.146340027

MULLIKEN ATOMIC CHARGES
-----------------------
   0 B :    0.092776
   1 H :   -0.092776
Sum of atomic charges:    0.0000000

LOEWDIN ATOMIC CHARGES
----------------------
   0 B :    0.189333
   1 H :   -0.189333

  Mayer bond orders larger than 0.100000
B(  0-B ,  1-H ) :   0.6664

FINAL SINGLE POINT ENERGY       -25.146340026933

DIPOLE MOMENT
-------------
                                X             Y             Z
Electronic contribution:     -2.44382      -0.00000      -0.00000
Nuclear contribution   :      2.02980       0.00000       0.00000
                        -----------------------------------------
Total Dipole Moment    :     -0.41402      -0.00000      -0.00000
                        -----------------------------------------
Magnitude (a.u.)       :      0.41402
Magnitude (Debye)      :      1.05236

Rotational constants in cm-1:     0.000000     3.777542     3.777542
Rotational constants in MHz :     0.000000 113247.859430 113247.859430

                             ****ORCA TERMINATED NORMALLY****
TOTAL RUN TIME: 0 days 0 hours 0 minutes 47 seconds 495 msec
