                         Program Version 5.0.0 -  RELEASE  -
|  1> ! RHF CCSD aug-cc-pVQZ VeryTightSCF
|  2>
|  3> *xyz 0 1
|  4>  B	0.0	0.0	0.0
|  5>  H	2.8	0.0	0.0
|  6> **                         ****END OF INPUT****

CARTESIAN COORDINATES (ANGSTROEM)
---------------------------------
  B      0.000000    0.000000    0.000000
  H      2.800000    0.000000    0.000000

 Total Charge           Charge          ....    0
 Multiplicity           Mult            ....    1
 Number of Electrons    NEL             ....    6
 Basis Dimension        Dim             ....  126

ORBITAL ENERGIES
----------------

  NO   OCC          E(Eh)            E(eV)
   0   2.0000      -7.845203      -213.4788
   1   2.0000      -0.582462       -15.8496
   2   2.0000      -0.284990        -7.7550
   3   0.0000      -0.014756        -0.4015
   4   0.0000      -0.014756        -0.4015
   5   0.0000      -0.008442        -0.2297
   6   0.0000       0.036503         0.9933
   7   0.0000       0.053387         1.4527

E(0)                                       ...    -24.969958519
E(0)                                       ...    -24.969958519
E(CORR)                                    ...     -0.139316343
E(TOT)                                     ...    -25.109274863

MULLIKEN ATOMIC CHARGES
-----------------------
   0 B :   -0.022666
   1 H :    0.022666
Sum of atomic charges:   -0.0000000

LOEWDIN ATOMIC CHARGES
----------------------
   0 B :    0.013348
   1 H :   -0.013348

  Mayer bond orders larger than 0.100000
B(  0-B ,  1-H ) :   0.2425

FINAL SINGLE POINT ENERGY       -25.109274862657

DIPOLE MOMENT
-------------
                                X             Y             Z
Electronic contribution:     -2.53293      -0.00000       0.00000
Nuclear contribution   :      2.58338       0.00000       0.00000
                        -----------------------------------------
Total Dipole Moment    :      0.05045      -0.00000       0.00000
                        -----------------------------------------
Magnitude (a.u.)       :      0.05045
Magnitude (Debye)      :      0.12823

Rotational constants in cm-1:     0.000000     2.332054     2.332054
Rotational constants in MHz :     0.000000 69913.219342 69913.219342

                             ****ORCA TERMINATED NORMALLY****
TOTAL RUN TIME: 0 days 0 hours 0 minutes 48 seconds 906 msec
