                         Program Version 5.0.0 -  RELEASE  -
|  1> ! RHF CCSD aug-cc-pVQZ VeryTightSCF
|  2>
|  3> *xyz 0 1
|  4>  B	0.0	0.0	0.0
|  5>  H	2.4	0.0	0.0
|  6> **                         ****END OF INPUT****

CARTESIAN COORDINATES (ANGSTROEM)
---------------------------------
  B      0.000000    0.000000    0.000000
  H      2.400000    0.000000    0.000000

 Total Charge           Charge          ....    0
 Multiplicity           Mult            ....    1
 Number of Electrons    NEL             ....    6
 Basis Dimension        Dim             ....  126

ORBITAL ENERGIES
----------------

  NO   OCC          E(Eh)            E(eV)
   0   2.0000      -7.816448      -212.6964
   1   2.0000      -0.565587       -15.3904
   2   2.0000      -0.309872        -8.4321
   3   0.0000      -0.000974        -0.0265
   4   0.0000      -0.000974        -0.0265
   5   0.0000       0.017102         0.4654
   6   0.0000       0.049013         1.3337
   7   0.0000       0.058722         1.5979

E(0)                                       ...    -25.005323450
E(0)                                       ...    -25.005323450
E(CORR)                                    ...     -0.125825911
E(TOT)                                     ...    -25.131149361

MULLIKEN ATOMIC CHARGES
-----------------------
   0 B :    0.067145
   1 H :   -0.067145
Sum of atomic charges:   -0.0000000

LOEWDIN ATOMIC CHARGES
----------------------
   0 B :    0.136398
   1 H :   -0.136398

  Mayer bond orders larger than 0.100000
B(  0-B ,  1-H ) :   0.5504

FINAL SINGLE POINT ENERGY       -25.131149361216

DIPOLE MOMENT
-------------
                                X             Y             Z
Electronic contribution:     -2.61361       0.00000       0.00000
Nuclear contribution   :      2.21433       0.00000       0.00000
                        -----------------------------------------
Total Dipole Moment    :     -0.39928       0.00000       0.00000
                        -----------------------------------------
Magnitude (a.u.)       :      0.39928
Magnitude (Debye)      :      1.01489

Rotational constants in cm-1:     0.000000     3.174185     3.174185
Rotational constants in MHz :     0.000000 95159.659660 95159.659660

                             ****ORCA TERMINATED NORMALLY****
TOTAL RUN TIME: 0 days 0 hours 0 minutes 47 seconds 4 msec
