 Gaussian 16, Revision A.03,
 Gaussian 16:  ES64L-G16RevA.03 25-Dec-2016

 -------------------------------------
 #p RHF/aug-cc-pVQZ guess=read CCSD=FC
 -------------------------------------

 ----------------------
 BH RHF at 2.4 Angstrom
 ----------------------
 Symbolic Z-matrix:
 Charge =  0 Multiplicity = 1

                         Standard orientation:
 ---------------------------------------------------------------------
 Center     Atomic      Atomic             Coordinates (Angstroms)
 Number     Number       Type             X           Y           Z
 ---------------------------------------------------------------------
      1          5           0        0.000000    0.000000    0.400000
      2          1           0        0.000000    0.000000   -2.000000
 ---------------------------------------------------------------------

 SCF Done:  E(RHF) =  -25.0053232856     A.U. after    1 cycles
 E2 =    -0.8767395812D-01 EUMP2 =    -0.25092997243704D+02

 The electronic state is 1-SG.
 Alpha  occ. eigenvalues --   -7.81644  -0.56559  -0.30987
 Alpha virt. eigenvalues --   -0.00097  -0.00097   0.01710   0.04901   0.05872
 Alpha virt. eigenvalues --    0.05872   0.06945   0.08792   0.13789   0.13789
 Alpha virt. eigenvalues --    0.13970   0.13970   0.17993   0.26356   0.26535

 Mulliken charges:
               1
     1  B    0.214707
     2  H   -0.214707
 Sum of Mulliken charges =  -0.00000

 Dipole moment (field-independent basis, Debye):
    X=              0.0000    Y=              0.0000    Z=              2.9709  Tot=              2.9709
 Quadrupole moment (field-independent basis, Debye-Ang):
   XX=             -7.9917   YY=             -7.9917   ZZ=            -14.9134
   XY=              0.0000   XZ=              0.0000   YZ=              0.0000

 Normal termination of Gaussian 16 at Sun May 22 15:51:38 2022.
