 Gaussian 16, Revision A.03,
 Gaussian 16:  ES64L-G16RevA.03 25-Dec-2016

 ------------------
 #p RHF/aug-cc-pVQZ
 ------------------

 ----------------------
 BH RHF at 2.8 Angstrom
 ----------------------
 Symbolic Z-matrix:
 Charge =  0 Multiplicity = 1

                         Standard orientation:
 ---------------------------------------------------------------------
 Center     Atomic      Atomic             Coordinates (Angstroms)
 Number     Number       Type             X           Y           Z
 ---------------------------------------------------------------------
      1          5           0        0.000000    0.000000    0.466667
      2          1           0        0.000000    0.000000   -2.333333
 ---------------------------------------------------------------------

 SCF Done:  E(RHF) =  -24.9699583521     A.U. after   10 cycles

 The electronic state is 1-SG.
 Alpha  occ. eigenvalues --   -7.84520  -0.58246  -0.28499
 Alpha virt. eigenvalues --   -0.01476  -0.01476  -0.00844   0.03650   0.05339
 Alpha virt. eigenvalues --    0.05339   0.07002   0.08557   0.13348   0.13348
 Alpha virt. eigenvalues --    0.13767   0.13767   0.17104   0.25686   0.25686

 Mulliken charges:
               1
     1  B    0.274885
     2  H   -0.274885
 Sum of Mulliken charges =  -0.00000

 Dipole moment (field-independent basis, Debye):
    X=              0.0000    Y=              0.0000    Z=              4.5039  Tot=              4.5039
 Quadrupole moment (field-independent basis, Debye-Ang):
   XX=             -8.4002   YY=             -8.4002   ZZ=            -17.6413
   XY=              0.0000   XZ=              0.0000   YZ=              0.0000

 Normal termination of Gaussian 16 at Sun May 22 15:49:06 2022.
