 Gaussian 16, Revision A.03,
 Gaussian 16:  ES64L-G16RevA.03 25-Dec-2016

 -------------------------------------
 #p RHF/aug-cc-pVQZ guess=read CCSD=FC
 -------------------------------------

 ----------------------
 BH RHF at 2.0 Angstrom
 ----------------------
 Symbolic Z-matrix:
 Charge =  0 Multiplicity = 1

                         Standard orientation:
 ---------------------------------------------------------------------
 Center     Atomic      Atomic             Coordinates (Angstroms)
 Number     Number       Type             X           Y           Z
 ---------------------------------------------------------------------
      1          5           0        0.000000    0.000000    0.333333
      2          1           0        0.000000    0.000000   -1.666667
 ---------------------------------------------------------------------

 SCF Done:  E(RHF) =  -25.0493970680     A.U. after    1 cycles
 E2 =    -0.8395487699D-01 EUMP2 =    -0.25133351945020D+02

 The electronic state is 1-SG.
 Alpha  occ. eigenvalues --   -7.77878  -0.55628  -0.33682
 Alpha virt. eigenvalues --    0.01176   0.01176   0.02929   0.05296   0.06577
 Alpha virt. eigenvalues --    0.06577   0.09289   0.09897   0.14043   0.14043
 Alpha virt. eigenvalues --    0.14169   0.14169   0.19494   0.24208   0.27235

 Mulliken charges:
               1
     1  B    0.179257
     2  H   -0.179257
 Sum of Mulliken charges =  -0.00000

 Dipole moment (field-independent basis, Debye):
    X=              0.0000    Y=              0.0000    Z=              1.2879  Tot=              1.2879
 Quadrupole moment (field-independent basis, Debye-Ang):
   XX=             -7.5304   YY=             -7.5304   ZZ=            -12.8561
   XY=              0.0000   XZ=              0.0000   YZ=              0.0000

 Normal termination of Gaussian 16 at Sun May 22 15:51:30 2022.
