 Gaussian 16, Revision A.03,
 Gaussian 16:  ES64L-G16RevA.03 25-Dec-2016

 -------------------------------------
 #p RHF/aug-cc-pVQZ guess=read CCSD=FC
 -------------------------------------

 ----------------------
 BH RHF at 3.6 Angstrom
 ----------------------
 Symbolic Z-matrix:
 Charge =  0 Multiplicity = 1

                         Standard orientation:
 ---------------------------------------------------------------------
 Center     Atomic      Atomic             Coordinates (Angstroms)
 Number     Number       Type             X           Y           Z
 ---------------------------------------------------------------------
      1          5           0        0.000000    0.000000    0.600000
      2          1           0        0.000000    0.000000   -3.000000
 ---------------------------------------------------------------------

 SCF Done:  E(RHF) =  -24.9203307368     A.U. after    1 cycles
 E2 =    -0.1050103205D+00 EUMP2 =    -0.25025341057243D+02

 The electronic state is 1-SG.
 Alpha  occ. eigenvalues --   -7.87965  -0.61007  -0.24991
 Alpha virt. eigenvalues --   -0.05471  -0.03703  -0.03703   0.02672   0.04615
 Alpha virt. eigenvalues --    0.04615   0.06695   0.09195   0.12467   0.12467
 Alpha virt. eigenvalues --    0.13177   0.13177   0.16190   0.24601   0.24601

 Mulliken charges:
               1
     1  B    0.365594
     2  H   -0.365594
 Sum of Mulliken charges =  -0.00000

 Dipole moment (field-independent basis, Debye):
    X=              0.0000    Y=              0.0000    Z=              7.0509  Tot=              7.0509
 Quadrupole moment (field-independent basis, Debye-Ang):
   XX=             -8.9678   YY=             -8.9678   ZZ=            -24.8385
   XY=              0.0000   XZ=              0.0000   YZ=              0.0000

 Normal termination of Gaussian 16 at Sun May 22 15:52:34 2022.
