                         Program Version 5.0.0 -  RELEASE  -
|  1> ! RHF CCSD aug-cc-pVQZ VeryTightSCF
|  2>
|  3> *xyz 0 1
|  4>  B	0.0	0.0	0.0
|  5>  H	3.8	0.0	0.0
|  6> **                         ****END OF INPUT****

CARTESIAN COORDINATES (ANGSTROEM)
---------------------------------
  B      0.000000    0.000000    0.000000
  H      3.800000    0.000000    0.000000

 Total Charge           Charge          ....    0
 Multiplicity           Mult            ....    1
 Number of Electrons    NEL             ....    6
 Basis Dimension        Dim             ....  126

ORBITAL ENERGIES
----------------

  NO   OCC          E(Eh)            E(eV)
   0   2.0000      -7.884552      -214.5496
   1   2.0000      -0.614776       -16.7289
   2   2.0000      -0.243619        -6.6292
   3   0.0000      -0.063143        -1.7182
   4   0.0000      -0.041017        -1.1161
   5   0.0000      -0.041017        -1.1161
   6   0.0000       0.025240         0.6868
   7   0.0000       0.044793         1.2189

E(0)                                       ...    -24.911281293
E(0)                                       ...    -24.911281293
E(CORR)                                    ...     -0.177874165
E(TOT)                                     ...    -25.089155458

MULLIKEN ATOMIC CHARGES
-----------------------
   0 B :   -0.466555
   1 H :    0.466555
Sum of atomic charges:    0.0000000

LOEWDIN ATOMIC CHARGES
----------------------
   0 B :   -0.423006
   1 H :    0.423006

  Mayer bond orders larger than 0.100000
B(  0-B ,  1-H ) :   0.4941

FINAL SINGLE POINT ENERGY       -25.089155458390

DIPOLE MOMENT
-------------
                                X             Y             Z
Electronic contribution:      0.10281      -0.00000       0.00000
Nuclear contribution   :      3.50602       0.00000       0.00000
                        -----------------------------------------
Total Dipole Moment    :      3.60883      -0.00000       0.00000
                        -----------------------------------------
Magnitude (a.u.)       :      3.60883
Magnitude (Debye)      :      9.17291

Rotational constants in cm-1:     0.000000     1.266157     1.266157
Rotational constants in MHz :     0.000000 37958.423798 37958.423798

                             ****ORCA TERMINATED NORMALLY****
TOTAL RUN TIME: 0 days 0 hours 0 minutes 51 seconds 74 msec
