 Gaussian 16, Revision A.03,
 Gaussian 16:  ES64L-G16RevA.03 25-Dec-2016

 ------------------
 #p RHF/aug-cc-pVQZ
 ------------------

 ----------------------
 BH RHF at 3.0 Angstrom
 ----------------------
 Symbolic Z-matrix:
 Charge =  0 Multiplicity = 1

                         Standard orientation:
 ---------------------------------------------------------------------
 Center     Atomic      Atomic             Coordinates (Angstroms)
 Number     Number       Type             X           Y           Z
 ---------------------------------------------------------------------
      1          5           0        0.000000    0.000000    0.500000
      2          1           0        0.000000    0.000000   -2.500000
 ---------------------------------------------------------------------

 SCF Done:  E(RHF) =  -24.9551950386     A.U. after   10 cycles

 The electronic state is 1-SG.
 Alpha  occ. eigenvalues --   -7.85644  -0.59061  -0.27447
 Alpha virt. eigenvalues --   -0.02190  -0.02121  -0.02121   0.03309   0.05123
 Alpha virt. eigenvalues --    0.05123   0.07027   0.08626   0.13120   0.13120
 Alpha virt. eigenvalues --    0.13635   0.13635   0.16816   0.25339   0.25339

 Mulliken charges:
               1
     1  B    0.305400
     2  H   -0.305400
 Sum of Mulliken charges =  -0.00000

 Dipole moment (field-independent basis, Debye):
    X=              0.0000    Y=              0.0000    Z=              5.2044  Tot=              5.2044
 Quadrupole moment (field-independent basis, Debye-Ang):
   XX=             -8.5744   YY=             -8.5744   ZZ=            -19.2378
   XY=              0.0000   XZ=              0.0000   YZ=              0.0000

 Normal termination of Gaussian 16 at Sun May 22 16:00:50 2022.
