 Gaussian 16, Revision A.03,
 Gaussian 16:  ES64L-G16RevA.03 25-Dec-2016

 -------------------------------------
 #p RHF/aug-cc-pVQZ guess=read CCSD=FC
 -------------------------------------

 ----------------------
 BH RHF at 3.4 Angstrom
 ----------------------
 Symbolic Z-matrix:
 Charge =  0 Multiplicity = 1

                         Standard orientation:
 ---------------------------------------------------------------------
 Center     Atomic      Atomic             Coordinates (Angstroms)
 Number     Number       Type             X           Y           Z
 ---------------------------------------------------------------------
      1          5           0        0.000000    0.000000    0.566667
      2          1           0        0.000000    0.000000   -2.833333
 ---------------------------------------------------------------------

 SCF Done:  E(RHF) =  -24.9305594026     A.U. after    1 cycles
 E2 =    -0.1011995599D+00 EUMP2 =    -0.25031758962481D+02

 The electronic state is 1-SG.
 Alpha  occ. eigenvalues --   -7.87347  -0.60449  -0.25706
 Alpha virt. eigenvalues --   -0.04510  -0.03240  -0.03240   0.02846   0.04765
 Alpha virt. eigenvalues --    0.04765   0.06842   0.08988   0.12677   0.12677
 Alpha virt. eigenvalues --    0.13335   0.13335   0.16388   0.24803   0.24803

 Mulliken charges:
               1
     1  B    0.350755
     2  H   -0.350755
 Sum of Mulliken charges =  -0.00000

 Dipole moment (field-independent basis, Debye):
    X=              0.0000    Y=              0.0000    Z=              6.4760  Tot=              6.4760
 Quadrupole moment (field-independent basis, Debye-Ang):
   XX=             -8.8577   YY=             -8.8577   ZZ=            -22.8463
   XY=              0.0000   XZ=              0.0000   YZ=              0.0000

 Normal termination of Gaussian 16 at Sun May 22 15:52:31 2022.
