                         Program Version 5.0.0 -  RELEASE  -
|  1> ! RHF CCSD aug-cc-pVQZ VeryTightSCF
|  2>
|  3> *xyz 0 1
|  4>  B	0.0	0.0	0.0
|  5>  H	3.4	0.0	0.0
|  6> **                         ****END OF INPUT****

CARTESIAN COORDINATES (ANGSTROEM)
---------------------------------
  B      0.000000    0.000000    0.000000
  H      3.400000    0.000000    0.000000

 Total Charge           Charge          ....    0
 Multiplicity           Mult            ....    1
 Number of Electrons    NEL             ....    6
 Basis Dimension        Dim             ....  126

ORBITAL ENERGIES
----------------

  NO   OCC          E(Eh)            E(eV)
   0   2.0000      -7.873473      -214.2481
   1   2.0000      -0.604490       -16.4490
   2   2.0000      -0.257062        -6.9950
   3   0.0000      -0.045105        -1.2274
   4   0.0000      -0.032399        -0.8816
   5   0.0000      -0.032399        -0.8816
   6   0.0000       0.028456         0.7743
   7   0.0000       0.047652         1.2967

E(0)                                       ...    -24.930559573
E(0)                                       ...    -24.930559573
E(CORR)                                    ...     -0.162744329
E(TOT)                                     ...    -25.093303902

MULLIKEN ATOMIC CHARGES
-----------------------
   0 B :   -0.272304
   1 H :    0.272304
Sum of atomic charges:   -0.0000000

LOEWDIN ATOMIC CHARGES
----------------------
   0 B :   -0.237329
   1 H :    0.237329

FINAL SINGLE POINT ENERGY       -25.093303902115

DIPOLE MOMENT
-------------
                                X             Y             Z
Electronic contribution:     -1.25824      -0.00000       0.00000
Nuclear contribution   :      3.13696       0.00000       0.00000
                        -----------------------------------------
Total Dipole Moment    :      1.87872      -0.00000       0.00000
                        -----------------------------------------
Magnitude (a.u.)       :      1.87872
Magnitude (Debye)      :      4.77533

Rotational constants in cm-1:     0.000000     1.581601     1.581601
Rotational constants in MHz :     0.000000 47415.193741 47415.193741

                             ****ORCA TERMINATED NORMALLY****
TOTAL RUN TIME: 0 days 0 hours 0 minutes 49 seconds 826 msec
