 Gaussian 16, Revision A.03,
 Gaussian 16:  ES64L-G16RevA.03 25-Dec-2016

 -------------------------------------
 #p RHF/aug-cc-pVQZ guess=read CCSD=FC
 -------------------------------------

 ----------------------
 BH RHF at 3.8 Angstrom
 ----------------------
 Symbolic Z-matrix:
 Charge =  0 Multiplicity = 1

                         Standard orientation:
 ---------------------------------------------------------------------
 Center     Atomic      Atomic             Coordinates (Angstroms)
 Number     Number       Type             X           Y           Z
 ---------------------------------------------------------------------
      1          5           0        0.000000    0.000000    0.633333
      2          1           0        0.000000    0.000000   -3.166667
 ---------------------------------------------------------------------

 SCF Done:  E(RHF) =  -24.9112811213     A.U. after    1 cycles
 E2 =    -0.1092422893D+00 EUMP2 =    -0.25020523410654D+02

 The electronic state is 1-SG.
 Alpha  occ. eigenvalues --   -7.88455  -0.61478  -0.24362
 Alpha virt. eigenvalues --   -0.06314  -0.04102  -0.04102   0.02524   0.04479
 Alpha virt. eigenvalues --    0.04479   0.06535   0.09395   0.12267   0.12267
 Alpha virt. eigenvalues --    0.13018   0.13018   0.15977   0.24435   0.24435

 Mulliken charges:
               1
     1  B    0.376944
     2  H   -0.376944
 Sum of Mulliken charges =  -0.00000

 Dipole moment (field-independent basis, Debye):
    X=              0.0000    Y=              0.0000    Z=              7.5888  Tot=              7.5888
 Quadrupole moment (field-independent basis, Debye-Ang):
   XX=             -9.0587   YY=             -9.0587   ZZ=            -26.9440
   XY=              0.0000   XZ=              0.0000   YZ=              0.0000

 Normal termination of Gaussian 16 at Sun May 22 16:04:10 2022.
