 Gaussian 16, Revision A.03,
 Gaussian 16:  ES64L-G16RevA.03 25-Dec-2016

 -------------------------------------
 #p RHF/aug-cc-pVQZ guess=read CCSD=FC
 -------------------------------------

 ----------------------
 BH RHF at 4.0 Angstrom
 ----------------------
 Symbolic Z-matrix:
 Charge =  0 Multiplicity = 1

                         Standard orientation:
 ---------------------------------------------------------------------
 Center     Atomic      Atomic             Coordinates (Angstroms)
 Number     Number       Type             X           Y           Z
 ---------------------------------------------------------------------
      1          5           0        0.000000    0.000000    0.666667
      2          1           0        0.000000    0.000000   -3.333333
 ---------------------------------------------------------------------

 SCF Done:  E(RHF) =  -24.9032699729     A.U. after    1 cycles
 E2 =    -0.1138932004D+00 EUMP2 =    -0.25017163173325D+02

 The electronic state is 1-SG.
 Alpha  occ. eigenvalues --   -7.88834  -0.61869  -0.23806
 Alpha virt. eigenvalues --   -0.07053  -0.04441  -0.04441   0.02397   0.04357
 Alpha virt. eigenvalues --    0.04357   0.06369   0.09581   0.12079   0.12079
 Alpha virt. eigenvalues --    0.12860   0.12860   0.15740   0.24305   0.24305

 Mulliken charges:
               1
     1  B    0.385858
     2  H   -0.385858
 Sum of Mulliken charges =   0.00000

 Dipole moment (field-independent basis, Debye):
    X=              0.0000    Y=              0.0000    Z=              8.0929  Tot=              8.0929
 Quadrupole moment (field-independent basis, Debye-Ang):
   XX=             -9.1322   YY=             -9.1322   ZZ=            -29.1553
   XY=              0.0000   XZ=              0.0000   YZ=              0.0000

 Normal termination of Gaussian 16 at Sun May 22 15:52:38 2022.
