                         Program Version 5.0.0 -  RELEASE  -
|  1> ! RHF CCSD aug-cc-pVQZ VeryTightSCF
|  2>
|  3> *xyz 0 1
|  4>  B	0.0	0.0	0.0
|  5>  H	4.8	0.0	0.0
|  6> **                         ****END OF INPUT****

CARTESIAN COORDINATES (ANGSTROEM)
---------------------------------
  B      0.000000    0.000000    0.000000
  H      4.800000    0.000000    0.000000

 Total Charge           Charge          ....    0
 Multiplicity           Mult            ....    1
 Number of Electrons    NEL             ....    6
 Basis Dimension        Dim             ....  126

ORBITAL ENERGIES
----------------

  NO   OCC          E(Eh)            E(eV)
   0   2.0000      -7.895819      -214.8561
   1   2.0000      -0.628170       -17.0934
   2   2.0000      -0.221270        -6.0211
   3   0.0000      -0.092165        -2.5079
   4   0.0000      -0.053229        -1.4484
   5   0.0000      -0.053229        -1.4484
   6   0.0000       0.020351         0.5538
   7   0.0000       0.039694         1.0801

E(0)                                       ...    -24.879305022
E(0)                                       ...    -24.879305022
E(CORR)                                    ...     -0.206959381
E(TOT)                                     ...    -25.086264403

MULLIKEN ATOMIC CHARGES
-----------------------
   0 B :   -0.787969
   1 H :    0.787969
Sum of atomic charges:   -0.0000000

LOEWDIN ATOMIC CHARGES
----------------------
   0 B :   -0.743299
   1 H :    0.743299

  Mayer bond orders larger than 0.100000
B(  0-B ,  1-H ) :   3.1198

FINAL SINGLE POINT ENERGY       -25.086264403288

DIPOLE MOMENT
-------------
                                X             Y             Z
Electronic contribution:      3.03812       0.00000       0.00000
Nuclear contribution   :      4.42866       0.00000       0.00000
                        -----------------------------------------
Total Dipole Moment    :      7.46677       0.00000       0.00000
                        -----------------------------------------
Magnitude (a.u.)       :      7.46677
Magnitude (Debye)      :     18.97903

Rotational constants in cm-1:     0.000000     0.793546     0.793546
Rotational constants in MHz :     0.000000 23789.914915 23789.914915

                             ****ORCA TERMINATED NORMALLY****
TOTAL RUN TIME: 0 days 0 hours 0 minutes 45 seconds 712 msec
