 Gaussian 16, Revision A.03,
 Gaussian 16:  ES64L-G16RevA.03 25-Dec-2016

 -------------------------------------
 #p RHF/aug-cc-pVQZ guess=read CCSD=FC
 -------------------------------------

 ----------------------
 BH RHF at 5.0 Angstrom
 ----------------------
 Symbolic Z-matrix:
 Charge =  0 Multiplicity = 1

                         Standard orientation:
 ---------------------------------------------------------------------
 Center     Atomic      Atomic             Coordinates (Angstroms)
 Number     Number       Type             X           Y           Z
 ---------------------------------------------------------------------
      1          5           0        0.000000    0.000000    0.833333
      2          1           0        0.000000    0.000000   -4.166667
 ---------------------------------------------------------------------

 SCF Done:  E(RHF) =  -24.8748661407     A.U. after    1 cycles
 E2 =    -0.1427412565D+00 EUMP2 =    -0.25017607397166D+02

 The electronic state is 1-SG.
 Alpha  occ. eigenvalues --   -7.89642  -0.62943  -0.21808
 Alpha virt. eigenvalues --   -0.09609  -0.05455  -0.05455   0.01970   0.03892
 Alpha virt. eigenvalues --    0.03892   0.05547   0.10266   0.11328   0.11328
 Alpha virt. eigenvalues --    0.12068   0.12068   0.14236   0.22817   0.23963

 Mulliken charges:
               1
     1  B    0.408756
     2  H   -0.408756
 Sum of Mulliken charges =   0.00000

 Dipole moment (field-independent basis, Debye):
    X=              0.0000    Y=              0.0000    Z=             10.2276  Tot=             10.2276
 Quadrupole moment (field-independent basis, Debye-Ang):
   XX=             -9.3074   YY=             -9.3074   ZZ=            -41.6211
   XY=              0.0000   XZ=              0.0000   YZ=              0.0000

 Normal termination of Gaussian 16 at Sun May 22 15:53:10 2022.
