 Gaussian 16, Revision A.03,
 Gaussian 16:  ES64L-G16RevA.03 25-Dec-2016

 ------------------
 #p RHF/aug-cc-pVQZ
 ------------------

 ----------------------
 BH RHF at 5.2 Angstrom
 ----------------------
 Symbolic Z-matrix:
 Charge =  0 Multiplicity = 1

                         Standard orientation:
 ---------------------------------------------------------------------
 Center     Atomic      Atomic             Coordinates (Angstroms)
 Number     Number       Type             X           Y           Z
 ---------------------------------------------------------------------
      1          5           0        0.000000    0.000000    0.866667
      2          1           0        0.000000    0.000000   -4.333333
 ---------------------------------------------------------------------

 SCF Done:  E(RHF) =  -24.8708989091     A.U. after   18 cycles

 The electronic state is 1-SG.
 Alpha  occ. eigenvalues --   -7.89671  -0.63040  -0.21519
 Alpha virt. eigenvalues --   -0.09958  -0.05562  -0.05562   0.01913   0.03820
 Alpha virt. eigenvalues --    0.03820   0.05396   0.10352   0.11213   0.11213
 Alpha virt. eigenvalues --    0.11922   0.11922   0.13882   0.22797   0.23815

 Mulliken charges:
               1
     1  B    0.410277
     2  H   -0.410277
 Sum of Mulliken charges =   0.00000

 Dipole moment (field-independent basis, Debye):
    X=              0.0000    Y=              0.0000    Z=             10.5996  Tot=             10.5996
 Quadrupole moment (field-independent basis, Debye-Ang):
   XX=             -9.3170   YY=             -9.3170   ZZ=            -44.3730
   XY=              0.0000   XZ=              0.0000   YZ=              0.0000

 Normal termination of Gaussian 16 at Sun May 22 15:49:54 2022.
