                         Program Version 5.0.0 -  RELEASE  -
|  1> ! RHF CCSD aug-cc-pVQZ VeryTightSCF
|  2>
|  3> *xyz 0 1
|  4>  B	0.0	0.0	0.0
|  5>  H	5.0	0.0	0.0
|  6> **                         ****END OF INPUT****

CARTESIAN COORDINATES (ANGSTROEM)
---------------------------------
  B      0.000000    0.000000    0.000000
  H      5.000000    0.000000    0.000000

 Total Charge           Charge          ....    0
 Multiplicity           Mult            ....    1
 Number of Electrons    NEL             ....    6
 Basis Dimension        Dim             ....  126

ORBITAL ENERGIES
----------------

  NO   OCC          E(Eh)            E(eV)
   0   2.0000      -7.896420      -214.8725
   1   2.0000      -0.629434       -17.1278
   2   2.0000      -0.218081        -5.9343
   3   0.0000      -0.096090        -2.6148
   4   0.0000      -0.054546        -1.4843
   5   0.0000      -0.054546        -1.4843
   6   0.0000       0.019705         0.5362
   7   0.0000       0.038919         1.0590

E(0)                                       ...    -24.874866314
E(0)                                       ...    -24.874866314
E(CORR)                                    ...     -0.211253603
E(TOT)                                     ...    -25.086119916

MULLIKEN ATOMIC CHARGES
-----------------------
   0 B :   -0.816876
   1 H :    0.816876
Sum of atomic charges:    0.0000000

LOEWDIN ATOMIC CHARGES
----------------------
   0 B :   -0.774986
   1 H :    0.774986

  Mayer bond orders larger than 0.100000
B(  0-B ,  1-H ) :   3.5270

FINAL SINGLE POINT ENERGY       -25.086119916260

DIPOLE MOMENT
-------------
                                X             Y             Z
Electronic contribution:      3.39688      -0.00000      -0.00000
Nuclear contribution   :      4.61318       0.00000       0.00000
                        -----------------------------------------
Total Dipole Moment    :      8.01006      -0.00000      -0.00000
                        -----------------------------------------
Magnitude (a.u.)       :      8.01006
Magnitude (Debye)      :     20.35995

Rotational constants in cm-1:     0.000000     0.731332     0.731332
Rotational constants in MHz :     0.000000 21924.785586 21924.785586

                             ****ORCA TERMINATED NORMALLY****
TOTAL RUN TIME: 0 days 0 hours 0 minutes 43 seconds 430 msec
