 Gaussian 16, Revision A.03,
 Gaussian 16:  ES64L-G16RevA.03 25-Dec-2016

 -------------------------------------
 #p RHF/aug-cc-pVQZ guess=read CCSD=FC
 -------------------------------------

 ----------------------
 BH RHF at 5.8 Angstrom
 ----------------------
 Symbolic Z-matrix:
 Charge =  0 Multiplicity = 1

                         Standard orientation:
 ---------------------------------------------------------------------
 Center     Atomic      Atomic             Coordinates (Angstroms)
 Number     Number       Type             X           Y           Z
 ---------------------------------------------------------------------
      1          5           0        0.000000    0.000000    0.966667
      2          1           0        0.000000    0.000000   -4.833333
 ---------------------------------------------------------------------

 SCF Done:  E(RHF) =  -24.8612742691     A.U. after    1 cycles
 E2 =    -0.1706029486D+00 EUMP2 =    -0.25031877217662D+02

 The electronic state is 1-SG.
 Alpha  occ. eigenvalues --   -7.89645  -0.63205  -0.20797
 Alpha virt. eigenvalues --   -0.10797  -0.05775  -0.05775   0.01773   0.03630
 Alpha virt. eigenvalues --    0.03630   0.04979   0.10479   0.10923   0.10923
 Alpha virt. eigenvalues --    0.11545   0.11545   0.12905   0.23190   0.23410

 Mulliken charges:
               1
     1  B    0.411048
     2  H   -0.411048
 Sum of Mulliken charges =  -0.00000

 Dipole moment (field-independent basis, Debye):
    X=              0.0000    Y=              0.0000    Z=             11.6516  Tot=             11.6516
 Quadrupole moment (field-independent basis, Debye-Ang):
   XX=             -9.3187   YY=             -9.3187   ZZ=            -53.1161
   XY=              0.0000   XZ=              0.0000   YZ=              0.0000

 Normal termination of Gaussian 16 at Sun May 22 16:04:58 2022.
