 Gaussian 16, Revision A.03,
 Gaussian 16:  ES64L-G16RevA.03 25-Dec-2016

 -------------------------------------
 #p RHF/aug-cc-pVQZ guess=read CCSD=FC
 -------------------------------------

 ----------------------
 BH RHF at 5.4 Angstrom
 ----------------------
 Symbolic Z-matrix:
 Charge =  0 Multiplicity = 1

                         Standard orientation:
 ---------------------------------------------------------------------
 Center     Atomic      Atomic             Coordinates (Angstroms)
 Number     Number       Type             X           Y           Z
 ---------------------------------------------------------------------
      1          5           0        0.000000    0.000000    0.900000
      2          1           0        0.000000    0.000000   -4.500000
 ---------------------------------------------------------------------

 SCF Done:  E(RHF) =  -24.8673442781     A.U. after    1 cycles
 E2 =    -0.1563075036D+00 EUMP2 =    -0.25023651781636D+02

 The electronic state is 1-SG.
 Alpha  occ. eigenvalues --   -7.89678  -0.63113  -0.21256
 Alpha virt. eigenvalues --   -0.10269  -0.05648  -0.05648   0.01861   0.03753
 Alpha virt. eigenvalues --    0.03753   0.05251   0.10420   0.11107   0.11107
 Alpha virt. eigenvalues --    0.11786   0.11786   0.13529   0.22871   0.23660

 Mulliken charges:
               1
     1  B    0.411087
     2  H   -0.411087
 Sum of Mulliken charges =  -0.00000

 Dipole moment (field-independent basis, Debye):
    X=              0.0000    Y=              0.0000    Z=             10.9597  Tot=             10.9597
 Quadrupole moment (field-independent basis, Debye-Ang):
   XX=             -9.3214   YY=             -9.3214   ZZ=            -47.2069
   XY=              0.0000   XZ=              0.0000   YZ=              0.0000

 Normal termination of Gaussian 16 at Sun May 22 16:04:50 2022.
