 Gaussian 16, Revision A.03,
 Gaussian 16:  ES64L-G16RevA.03 25-Dec-2016

 ------------------
 #p RHF/aug-cc-pVQZ
 ------------------

 ----------------------
 BH RHF at 5.6 Angstrom
 ----------------------
 Symbolic Z-matrix:
 Charge =  0 Multiplicity = 1

                         Standard orientation:
 ---------------------------------------------------------------------
 Center     Atomic      Atomic             Coordinates (Angstroms)
 Number     Number       Type             X           Y           Z
 ---------------------------------------------------------------------
      1          5           0        0.000000    0.000000    0.933333
      2          1           0        0.000000    0.000000   -4.666667
 ---------------------------------------------------------------------

 SCF Done:  E(RHF) =  -24.8641509429     A.U. after   21 cycles

 The electronic state is 1-SG.
 Alpha  occ. eigenvalues --   -7.89667  -0.63167  -0.21017
 Alpha virt. eigenvalues --   -0.10547  -0.05719  -0.05719   0.01815   0.03690
 Alpha virt. eigenvalues --    0.03690   0.05112   0.10464   0.11011   0.11011
 Alpha virt. eigenvalues --    0.11660   0.11660   0.13196   0.23011   0.23523

 Mulliken charges:
               1
     1  B    0.411307
     2  H   -0.411307
 Sum of Mulliken charges =  -0.00000

 Dipole moment (field-independent basis, Debye):
    X=              0.0000    Y=              0.0000    Z=             11.3097  Tot=             11.3097
 Quadrupole moment (field-independent basis, Debye-Ang):
   XX=             -9.3218   YY=             -9.3218   ZZ=            -50.1216
   XY=              0.0000   XZ=              0.0000   YZ=              0.0000

 Normal termination of Gaussian 16 at Sun May 22 15:49:58 2022.
