                         Program Version 5.0.0 -  RELEASE  -
|  1> ! RHF CCSD aug-cc-pVQZ VeryTightSCF
|  2>
|  3> *xyz 0 1
|  4>  B	0.0	0.0	0.0
|  5>  H	6.0	0.0	0.0
|  6> **                         ****END OF INPUT****

CARTESIAN COORDINATES (ANGSTROEM)
---------------------------------
  B      0.000000    0.000000    0.000000
  H      6.000000    0.000000    0.000000

 Total Charge           Charge          ....    0
 Multiplicity           Mult            ....    1
 Number of Electrons    NEL             ....    6
 Basis Dimension        Dim             ....  126

ORBITAL ENERGIES
----------------

  NO   OCC          E(Eh)            E(eV)
   0   2.0000      -7.896137      -214.8648
   1   2.0000      -0.632321       -17.2063
   2   2.0000      -0.205957        -5.6044
   3   0.0000      -0.110219        -2.9992
   4   0.0000      -0.058213        -1.5841
   5   0.0000      -0.058213        -1.5841
   6   0.0000       0.017346         0.4720
   7   0.0000       0.035726         0.9721

E(0)                                       ...    -24.858675611
E(0)                                       ...    -24.858675611
E(CORR)                                    ...     -0.227194423
E(TOT)                                     ...    -25.085870034

MULLIKEN ATOMIC CHARGES
-----------------------
   0 B :   -0.853612
   1 H :    0.853612
Sum of atomic charges:   -0.0000000

LOEWDIN ATOMIC CHARGES
----------------------
   0 B :   -0.828357
   1 H :    0.828357

  Mayer bond orders larger than 0.100000
B(  0-B ,  1-H ) :   4.4856

FINAL SINGLE POINT ENERGY       -25.085870034359

DIPOLE MOMENT
-------------
                                X             Y             Z
Electronic contribution:      4.27232       0.00000      -0.00000
Nuclear contribution   :      5.53582       0.00000       0.00000
                        -----------------------------------------
Total Dipole Moment    :      9.80814       0.00000      -0.00000
                        -----------------------------------------
Magnitude (a.u.)       :      9.80814
Magnitude (Debye)      :     24.93031

Rotational constants in cm-1:     0.000000     0.507870     0.507870
Rotational constants in MHz :     0.000000 15225.545546 15225.545546

                             ****ORCA TERMINATED NORMALLY****
TOTAL RUN TIME: 0 days 0 hours 0 minutes 36 seconds 922 msec
