 Gaussian 16, Revision A.03,
 Gaussian 16:  ES64L-G16RevA.03 25-Dec-2016

 -------------------------------
 #p UHF/cc-pVTZ stable guess=mix
 -------------------------------

 ------------
 [Fe(H2O)6]2+
 ------------
 Symbolic Z-matrix:
 Charge =  2 Multiplicity = 5

                         Standard orientation:
 ---------------------------------------------------------------------
 Center     Atomic      Atomic             Coordinates (Angstroms)
 Number     Number       Type             X           Y           Z
 ---------------------------------------------------------------------
      1         26           0        0.000065    0.000163   -0.000017
      2          8           0       -1.246719   -1.256779    0.948755
      3          1           0       -1.906773   -1.728539    0.406440
      4          8           0        1.248166    0.192856    1.561816
      5          1           0        0.978517    0.504619    2.444641
      6          8           0       -1.248574   -0.193244   -1.561244
      7          1           0       -0.979714   -0.505995   -2.443958
      8          8           0        1.247144    1.256732   -0.948912
      9          1           0        1.906411    1.729332   -0.406365
     10          8           0       -1.247341    1.449656    0.614407
     11          1           0       -1.905699    1.215874    1.295786
     12          8           0        1.247217   -1.449530   -0.614705
     13          1           0        1.906902   -1.215343   -1.294651
     14          1           0       -0.977458    2.370268    0.784533
     15          1           0        1.907641   -0.513331    1.698765
     16          1           0        0.977196   -2.369840   -0.786194
     17          1           0       -0.975734   -1.865439    1.659658
     18          1           0       -1.908858    0.512144   -1.698350
     19          1           0        0.976718    1.864477   -1.660803
 ---------------------------------------------------------------------

 SCF Done:  E(UHF) =  -1718.43879071     A.U. after  100 cycles

 The electronic state is 5-A.
 Alpha  occ. eigenvalues -- -261.58042 -32.20363 -27.69401 -27.69392 -27.66091
 Alpha  occ. eigenvalues --  -20.90958 -20.90958 -20.90957 -20.90957 -20.90956
 Alpha  occ. eigenvalues --  -20.90955  -4.57178  -3.21410  -3.21390  -3.14321
 Alpha  occ. eigenvalues --   -1.71304  -1.70193  -1.69765  -1.69764  -1.69613
 Alpha  occ. eigenvalues --   -1.69612  -1.07559  -1.06817  -1.06815  -1.06813
 Alpha  occ. eigenvalues --   -1.06091  -1.06088  -1.04665  -1.04662  -1.01793
 Alpha  occ. eigenvalues --   -0.97069  -0.95942  -0.95941  -0.94994  -0.94991
 Alpha  occ. eigenvalues --   -0.88850  -0.87463  -0.87461  -0.86388  -0.86385
 Alpha  occ. eigenvalues --   -0.85636  -0.82699  -0.79279  -0.79276
 Alpha virt. eigenvalues --   -0.21532  -0.17571  -0.17570  -0.16134  -0.10359
 Alpha virt. eigenvalues --   -0.10358  -0.06841  -0.06840  -0.06729  -0.06719
 Alpha virt. eigenvalues --   -0.05449  -0.05449  -0.00344   0.01529   0.02100

  Beta  occ. eigenvalues -- -261.57798 -32.07785 -27.55927 -27.55927 -27.55866
  Beta  occ. eigenvalues --  -20.90772 -20.90772 -20.90771 -20.90771 -20.90770
  Beta  occ. eigenvalues --  -20.90770  -4.21553  -2.79697  -2.74381  -2.74366
  Beta  occ. eigenvalues --   -1.70874  -1.69748  -1.69310  -1.69310  -1.69101
  Beta  occ. eigenvalues --   -1.69100  -1.07174  -1.06613  -1.05949  -1.05946
  Beta  occ. eigenvalues --   -1.05889  -1.05885  -1.00814  -0.96295  -0.95096
  Beta  occ. eigenvalues --   -0.95095  -0.95025  -0.95024  -0.86862  -0.86860
  Beta  occ. eigenvalues --   -0.86854  -0.86852  -0.86673  -0.84995  -0.69716
  Beta virt. eigenvalues --   -0.21451  -0.17526  -0.17525  -0.16105  -0.10884
  Beta virt. eigenvalues --   -0.10883  -0.07092  -0.07091  -0.06646  -0.06612
  Beta virt. eigenvalues --   -0.05323  -0.05322  -0.01246  -0.01244   0.00079

 Mulliken charges and spin densities:
               1          2
     1  Fe   1.350603   3.906406
     2  O   -0.522467   0.011365
     3  H    0.320410   0.002396
     4  O   -0.522471   0.011367
     5  H    0.310319   0.001845
     6  O   -0.522590   0.011356
     7  H    0.310349   0.001849
     8  O   -0.522532   0.011357
     9  H    0.320427   0.002397
    10  O   -0.522448   0.011351
    11  H    0.320384   0.002398
    12  O   -0.522527   0.011349
    13  H    0.320419   0.002394
    14  H    0.310299   0.001843
    15  H    0.320396   0.002391
    16  H    0.310321   0.001848
    17  H    0.310304   0.001846
    18  H    0.320464   0.002397
    19  H    0.310339   0.001845
 Sum of Mulliken charges =   2.00000   4.00000

 Dipole moment (field-independent basis, Debye):
    X=             -0.0010    Y=             -0.0010    Z=             -0.0017  Tot=              0.0023
 Quadrupole moment (field-independent basis, Debye-Ang):
   XX=            -23.4123   YY=            -15.7950   ZZ=            -15.8033
   XY=             -0.0005   XZ=              0.0117   YZ=              0.0047

 Normal termination of Gaussian 16 at Sun May 15 11:01:50 2022.
