                         Program Version 5.0.0 -  RELEASE  -
|  1> !UHF def2-TZVP Slowconv NoTrah NoRI VeryTightSCF
|  2> !MOread
|  3>
|  4> %pal
|  5>     nprocs          16
|  6> end
|  7>
|  8> %moinp "RC2-highspin.gbw"
|  9>
| 10> %scf
| 11>     MaxIter         500
| 12>     FlipSpin        44
| 13>     FinalMs         0.5
| 14> end
| 15>
| 16> *xyz +1 12
| 17>  C		41.75734		53.28449		36.46919
| 18>  N		42.79051		53.11573		35.57330
| 19>  H		43.17228		53.83016		34.93276
| 20>  C		43.13470		51.81354		35.56329
| 21>  H		43.91258		51.37948		34.93820
| 22>  N		42.38034		51.13480		36.42217
| 23>  C		41.51102		52.03696		36.99860
| 24>  H		40.83095		51.72793		37.79245
| 25>  C		40.09781		47.27650		33.80529
| 26>  N		40.02170		48.59447		33.39932
| 27>  H		39.44553		49.01241		32.66056
| 28>  C		40.82359		49.32561		34.20213
| 29>  H		40.95446		50.40104		34.10028
| 30>  N		41.40873		48.54956		35.10172
| 31>  C		40.96816		47.26932		34.87055
| 32>  H		41.28796		46.44831		35.50461
| 33>  C		38.24452		48.45120		37.81512
| 34>  H		38.05954		49.38046		37.26339
| 35>  H		37.98665		48.64263		38.86852
| 36>  C		39.72949		48.13040		37.79333
| 37>  O		40.09429		46.93627		38.07351
| 38>  O		40.51997		49.08118		37.60316
| 39>  C		38.64927		43.85206		40.73245
| 40>  N		39.75373		43.46182		41.46772
| 41>  H		39.79496		42.88382		42.31310
| 42>  C		40.85618		43.95072		40.86918
| 43>  H		41.86248		43.73518		41.21408
| 44>  N		40.53224		44.65285		39.79009
| 45>  C		39.15837		44.58557		39.68680
| 46>  H		38.64146		45.07274		38.87046
| 47>  C		42.78261		43.20374		35.50847
| 48>  N		41.70457		42.56369		36.07793
| 49>  H		41.38806		41.60804		35.87571
| 50>  C		41.22829		43.34611		37.06176
| 51>  H		40.41508		43.05921		37.72131
| 52>  N		41.93561		44.46974		37.14515
| 53>  C		42.91935		44.39163		36.18162
| 54>  H		43.65310		45.17946		36.03202
| 55>  C		45.76058		48.09668		34.01433
| 56>  H		45.12510		47.65198		33.22625
| 57>  H		46.65442		47.46412		34.10910
| 58>  C		44.94912		48.01873		35.29961
| 59>  O		44.13484		48.94943		35.55949
| 60>  O		45.08257		46.97820		36.01440
| 61>  Fe		42.54704		49.05340		36.88791
| 62>  Fe		41.81454		46.03362		38.62691
| 63>  O		42.83673		47.18336		37.38865
| 64>  H		43.73372		46.94370		37.02075
| 65>  C		43.49278		47.06016		40.65639
| 66>  C		43.63065		47.67500		42.05411
| 67>  C		45.10402		47.59104		42.50255
| 68>  C		45.62433		46.15327		42.46003
| 69>  C		45.40442		45.48020		41.08199
| 70>  C		43.93248		45.59938		40.69958
| 71>  O		42.19054		47.11944		40.15943
| 72>  O		42.78039		47.01168		42.97373
| 73>  O		45.28803		48.11581		43.80122
| 74>  O		46.99863		46.17840		42.81016
| 75>  O		45.74779		44.11749		41.08768
| 76>  O		43.60537		45.05344		39.42059
| 77>  H		44.16891		47.60985		39.96716
| 78>  H		43.37366		48.74650		41.98883
| 79>  H		45.70535		48.16646		41.76817
| 80>  H		45.03997		45.57270		43.19200
| 81>  H		46.02107		46.03839		40.34306
| 82>  H		43.34294		45.09136		41.47918
| 83>  H		42.11013		47.68750		43.28882
| 84>  H		45.23162		49.11556		43.72066
| 85>  H		47.38293		45.25457		42.73301
| 86>  H		46.61533		43.98339		41.55425
| 87>  H		43.52006		44.03995		39.45021
| 88>  O		42.85959		49.69549		38.87779
| 89>  O		44.06259		49.60890		38.41687
| 90>  H		41.30606		54.24869		36.70311
| 91>  H		39.55759		46.43186		33.37773
| 92>  H		37.59815		47.66320		37.42867
| 93>  H		37.60541		43.64578		40.96882
| 94>  H		43.42741		42.77068		34.74377
| 95>  H		46.04094		49.08905		33.66124
| 96> *
| 97>
| 98>                          ****END OF INPUT****

CARTESIAN COORDINATES (ANGSTROEM)
---------------------------------
  C     41.757340   53.284490   36.469190
  N     42.790510   53.115730   35.573300
  H     43.172280   53.830160   34.932760
  C     43.134700   51.813540   35.563290
  H     43.912580   51.379480   34.938200
  N     42.380340   51.134800   36.422170
  C     41.511020   52.036960   36.998600
  H     40.830950   51.727930   37.792450
  C     40.097810   47.276500   33.805290
  N     40.021700   48.594470   33.399320
  H     39.445530   49.012410   32.660560
  C     40.823590   49.325610   34.202130
  H     40.954460   50.401040   34.100280
  N     41.408730   48.549560   35.101720
  C     40.968160   47.269320   34.870550
  H     41.287960   46.448310   35.504610
  C     38.244520   48.451200   37.815120
  H     38.059540   49.380460   37.263390
  H     37.986650   48.642630   38.868520
  C     39.729490   48.130400   37.793330
  O     40.094290   46.936270   38.073510
  O     40.519970   49.081180   37.603160
  C     38.649270   43.852060   40.732450
  N     39.753730   43.461820   41.467720
  H     39.794960   42.883820   42.313100
  C     40.856180   43.950720   40.869180
  H     41.862480   43.735180   41.214080
  N     40.532240   44.652850   39.790090
  C     39.158370   44.585570   39.686800
  H     38.641460   45.072740   38.870460
  C     42.782610   43.203740   35.508470
  N     41.704570   42.563690   36.077930
  H     41.388060   41.608040   35.875710
  C     41.228290   43.346110   37.061760
  H     40.415080   43.059210   37.721310
  N     41.935610   44.469740   37.145150
  C     42.919350   44.391630   36.181620
  H     43.653100   45.179460   36.032020
  C     45.760580   48.096680   34.014330
  H     45.125100   47.651980   33.226250
  H     46.654420   47.464120   34.109100
  C     44.949120   48.018730   35.299610
  O     44.134840   48.949430   35.559490
  O     45.082570   46.978200   36.014400
  Fe    42.547040   49.053400   36.887910
  Fe    41.814540   46.033620   38.626910
  O     42.836730   47.183360   37.388650
  H     43.733720   46.943700   37.020750
  C     43.492780   47.060160   40.656390
  C     43.630650   47.675000   42.054110
  C     45.104020   47.591040   42.502550
  C     45.624330   46.153270   42.460030
  C     45.404420   45.480200   41.081990
  C     43.932480   45.599380   40.699580
  O     42.190540   47.119440   40.159430
  O     42.780390   47.011680   42.973730
  O     45.288030   48.115810   43.801220
  O     46.998630   46.178400   42.810160
  O     45.747790   44.117490   41.087680
  O     43.605370   45.053440   39.420590
  H     44.168910   47.609850   39.967160
  H     43.373660   48.746500   41.988830
  H     45.705350   48.166460   41.768170
  H     45.039970   45.572700   43.192000
  H     46.021070   46.038390   40.343060
  H     43.342940   45.091360   41.479180
  H     42.110130   47.687500   43.288820
  H     45.231620   49.115560   43.720660
  H     47.382930   45.254570   42.733010
  H     46.615330   43.983390   41.554250
  H     43.520060   44.039950   39.450210
  O     42.859590   49.695490   38.877790
  O     44.062590   49.608900   38.416870
  H     41.306060   54.248690   36.703110
  H     39.557590   46.431860   33.377730
  H     37.598150   47.663200   37.428670
  H     37.605410   43.645780   40.968820
  H     43.427410   42.770680   34.743770
  H     46.040940   49.089050   33.661240

 Total Charge           Charge          ....    1
 Multiplicity           Mult            ....   12
 Number of Electrons    NEL             ....  377
 Basis Dimension        Dim             .... 1627

ORBITAL ENERGIES
----------------
                 SPIN UP ORBITALS
  NO   OCC          E(Eh)            E(eV)
   0   1.0000    -261.610366     -7118.7800
   1   1.0000    -261.607699     -7118.7074
   2   1.0000     -32.276505      -878.2883
   3   1.0000     -32.110700      -873.7766
   4   1.0000     -27.753605      -755.2140
   5   1.0000     -27.752665      -755.1884
   6   1.0000     -27.751582      -755.1589
   7   1.0000     -27.589486      -750.7481
   8   1.0000     -27.589221      -750.7409
   9   1.0000     -27.588984      -750.7344
  10   1.0000     -20.692022      -563.0585
  11   1.0000     -20.639603      -561.6322
  12   1.0000     -20.636119      -561.5373
  13   1.0000     -20.623877      -561.2042
  14   1.0000     -20.621414      -561.1372
  15   1.0000     -20.619826      -561.0940
  16   1.0000     -20.610284      -560.8343
  17   1.0000     -20.606335      -560.7269
  18   1.0000     -20.602428      -560.6206
  19   1.0000     -20.587020      -560.2013
  20   1.0000     -20.583383      -560.1023
  21   1.0000     -20.563330      -559.5567
  22   1.0000     -20.538772      -558.8884
  23   1.0000     -15.750171      -428.5839
  24   1.0000     -15.746352      -428.4800
  25   1.0000     -15.735735      -428.1911
  26   1.0000     -15.728737      -428.0007
  27   1.0000     -15.693458      -427.0407
  28   1.0000     -15.688543      -426.9070
  29   1.0000     -15.669587      -426.3911
  30   1.0000     -15.668049      -426.3493
  31   1.0000     -11.457047      -311.7621
  32   1.0000     -11.433233      -311.1141
  33   1.0000     -11.429976      -311.0255
  34   1.0000     -11.416979      -310.6718
  35   1.0000     -11.415823      -310.6403
  36   1.0000     -11.409101      -310.4574
  37   1.0000     -11.379524      -309.6526
  38   1.0000     -11.374872      -309.5260
  39   1.0000     -11.368031      -309.3398
  40   1.0000     -11.363931      -309.2283
  41   1.0000     -11.358901      -309.0914
  42   1.0000     -11.358568      -309.0824
  43   1.0000     -11.354001      -308.9581
  44   1.0000     -11.351399      -308.8873
  45   1.0000     -11.348326      -308.8036
  46   1.0000     -11.346568      -308.7558
  47   1.0000     -11.337447      -308.5076
  48   1.0000     -11.328990      -308.2775
  49   1.0000     -11.323883      -308.1385
  50   1.0000     -11.315128      -307.9003
  51   1.0000     -11.309568      -307.7490
  52   1.0000     -11.283607      -307.0425
  53   1.0000      -4.634253      -126.1044
  54   1.0000      -4.183423      -113.8367
  55   1.0000      -3.249625       -88.4268
  56   1.0000      -3.247301       -88.3636
  57   1.0000      -3.245226       -88.3071
  58   1.0000      -2.705457       -73.6192
  59   1.0000      -2.703818       -73.5746
  60   1.0000      -2.703345       -73.5618
  61   1.0000      -1.548851       -42.1464
  62   1.0000      -1.500988       -40.8440
  63   1.0000      -1.486831       -40.4587
  64   1.0000      -1.473355       -40.0920
  65   1.0000      -1.468338       -39.9555
  66   1.0000      -1.460354       -39.7382
  67   1.0000      -1.455396       -39.6033
  68   1.0000      -1.448929       -39.4274
  69   1.0000      -1.444296       -39.3013
  70   1.0000      -1.419064       -38.6147
  71   1.0000      -1.405048       -38.2333
  72   1.0000      -1.398343       -38.0509
  73   1.0000      -1.386791       -37.7365
  74   1.0000      -1.359242       -36.9869
  75   1.0000      -1.345411       -36.6105
  76   1.0000      -1.340187       -36.4683
  77   1.0000      -1.302642       -35.4467
  78   1.0000      -1.297089       -35.2956
  79   1.0000      -1.282979       -34.9116
  80   1.0000      -1.275776       -34.7156
  81   1.0000      -1.143217       -31.1085
  82   1.0000      -1.130986       -30.7757
  83   1.0000      -1.130938       -30.7744
  84   1.0000      -1.118280       -30.4300
  85   1.0000      -1.114104       -30.3163
  86   1.0000      -1.108813       -30.1723
  87   1.0000      -1.076851       -29.3026
  88   1.0000      -1.043996       -28.4086
  89   1.0000      -1.041100       -28.3298
  90   1.0000      -1.024295       -27.8725
  91   1.0000      -0.990535       -26.9538
  92   1.0000      -0.986413       -26.8417
  93   1.0000      -0.967666       -26.3315
  94   1.0000      -0.963659       -26.2225
  95   1.0000      -0.962416       -26.1887
  96   1.0000      -0.950832       -25.8734
  97   1.0000      -0.945250       -25.7216
  98   1.0000      -0.941758       -25.6265
  99   1.0000      -0.932310       -25.3694
 100   1.0000      -0.923406       -25.1271
 101   1.0000      -0.918992       -25.0070
 102   1.0000      -0.909592       -24.7513
 103   1.0000      -0.904829       -24.6217
 104   1.0000      -0.903011       -24.5722
 105   1.0000      -0.885280       -24.0897
 106   1.0000      -0.879270       -23.9261
 107   1.0000      -0.870049       -23.6752
 108   1.0000      -0.868717       -23.6390
 109   1.0000      -0.858270       -23.3547
 110   1.0000      -0.846182       -23.0258
 111   1.0000      -0.835848       -22.7446
 112   1.0000      -0.812463       -22.1082
 113   1.0000      -0.801798       -21.8180
 114   1.0000      -0.781471       -21.2649
 115   1.0000      -0.772126       -21.0106
 116   1.0000      -0.762114       -20.7382
 117   1.0000      -0.752067       -20.4648
 118   1.0000      -0.748883       -20.3782
 119   1.0000      -0.745953       -20.2984
 120   1.0000      -0.737793       -20.0764
 121   1.0000      -0.735802       -20.0222
 122   1.0000      -0.734722       -19.9928
 123   1.0000      -0.731011       -19.8918
 124   1.0000      -0.728081       -19.8121
 125   1.0000      -0.726883       -19.7795
 126   1.0000      -0.722433       -19.6584
 127   1.0000      -0.720472       -19.6050
 128   1.0000      -0.720088       -19.5946
 129   1.0000      -0.715315       -19.4647
 130   1.0000      -0.713726       -19.4215
 131   1.0000      -0.712149       -19.3786
 132   1.0000      -0.710461       -19.3326
 133   1.0000      -0.706391       -19.2219
 134   1.0000      -0.701203       -19.0807
 135   1.0000      -0.700420       -19.0594
 136   1.0000      -0.698343       -19.0029
 137   1.0000      -0.697428       -18.9780
 138   1.0000      -0.694763       -18.9055
 139   1.0000      -0.692396       -18.8411
 140   1.0000      -0.687464       -18.7068
 141   1.0000      -0.685525       -18.6541
 142   1.0000      -0.680043       -18.5049
 143   1.0000      -0.676128       -18.3984
 144   1.0000      -0.674543       -18.3553
 145   1.0000      -0.666624       -18.1398
 146   1.0000      -0.657747       -17.8982
 147   1.0000      -0.646363       -17.5884
 148   1.0000      -0.642890       -17.4939
 149   1.0000      -0.641518       -17.4566
 150   1.0000      -0.634610       -17.2686
 151   1.0000      -0.631461       -17.1829
 152   1.0000      -0.629216       -17.1218
 153   1.0000      -0.623646       -16.9703
 154   1.0000      -0.618789       -16.8381
 155   1.0000      -0.613806       -16.7025
 156   1.0000      -0.610459       -16.6114
 157   1.0000      -0.605438       -16.4748
 158   1.0000      -0.601457       -16.3665
 159   1.0000      -0.594421       -16.1750
 160   1.0000      -0.583218       -15.8702
 161   1.0000      -0.580417       -15.7939
 162   1.0000      -0.574422       -15.6308
 163   1.0000      -0.565052       -15.3758
 164   1.0000      -0.553918       -15.0729
 165   1.0000      -0.550750       -14.9867
 166   1.0000      -0.545204       -14.8357
 167   1.0000      -0.543401       -14.7867
 168   1.0000      -0.540999       -14.7213
 169   1.0000      -0.535753       -14.5786
 170   1.0000      -0.533479       -14.5167
 171   1.0000      -0.527190       -14.3456
 172   1.0000      -0.519172       -14.1274
 173   1.0000      -0.517395       -14.0790
 174   1.0000      -0.513586       -13.9754
 175   1.0000      -0.509886       -13.8747
 176   1.0000      -0.506139       -13.7727
 177   1.0000      -0.492988       -13.4149
 178   1.0000      -0.487034       -13.2529
 179   1.0000      -0.484971       -13.1967
 180   1.0000      -0.482563       -13.1312
 181   1.0000      -0.479955       -13.0602
 182   1.0000      -0.454549       -12.3689
 183   1.0000      -0.445109       -12.1120
 184   1.0000      -0.441899       -12.0247
 185   1.0000      -0.437054       -11.8928
 186   1.0000      -0.428431       -11.6582
 187   1.0000      -0.424515       -11.5517
 188   1.0000      -0.419756       -11.4222
 189   0.0000       0.013950         0.3796
 190   0.0000       0.025325         0.6891
 191   0.0000       0.031483         0.8567
 192   0.0000       0.033711         0.9173
 193   0.0000       0.039532         1.0757

                 SPIN DOWN ORBITALS
  NO   OCC          E(Eh)            E(eV)
   0   1.0000    -261.611621     -7118.8141
   1   1.0000    -261.606440     -7118.6731
   2   1.0000     -32.276976      -878.3012
   3   1.0000     -32.111090      -873.7872
   4   1.0000     -27.753619      -755.2144
   5   1.0000     -27.753266      -755.2048
   6   1.0000     -27.753024      -755.1982
   7   1.0000     -27.589963      -750.7611
   8   1.0000     -27.589280      -750.7425
   9   1.0000     -27.588879      -750.7316
  10   1.0000     -20.689714      -562.9957
  11   1.0000     -20.639605      -561.6322
  12   1.0000     -20.619820      -561.0938
  13   1.0000     -20.618030      -561.0451
  14   1.0000     -20.612874      -560.9048
  15   1.0000     -20.609141      -560.8032
  16   1.0000     -20.606346      -560.7272
  17   1.0000     -20.603524      -560.6504
  18   1.0000     -20.602411      -560.6201
  19   1.0000     -20.590355      -560.2920
  20   1.0000     -20.583401      -560.1028
  21   1.0000     -20.563269      -559.5550
  22   1.0000     -20.531418      -558.6883
  23   1.0000     -15.750116      -428.5824
  24   1.0000     -15.746254      -428.4774
  25   1.0000     -15.735832      -428.1938
  26   1.0000     -15.728812      -428.0027
  27   1.0000     -15.691277      -426.9814
  28   1.0000     -15.686146      -426.8417
  29   1.0000     -15.672662      -426.4748
  30   1.0000     -15.670351      -426.4119
  31   1.0000     -11.456964      -311.7598
  32   1.0000     -11.433321      -311.1165
  33   1.0000     -11.430205      -311.0317
  34   1.0000     -11.416954      -310.6711
  35   1.0000     -11.415367      -310.6279
  36   1.0000     -11.409099      -310.4574
  37   1.0000     -11.379304      -309.6466
  38   1.0000     -11.374687      -309.5210
  39   1.0000     -11.368500      -309.3526
  40   1.0000     -11.364144      -309.2341
  41   1.0000     -11.359074      -309.0961
  42   1.0000     -11.358634      -309.0841
  43   1.0000     -11.354029      -308.9588
  44   1.0000     -11.350921      -308.8743
  45   1.0000     -11.348315      -308.8033
  46   1.0000     -11.346523      -308.7546
  47   1.0000     -11.337445      -308.5076
  48   1.0000     -11.328967      -308.2769
  49   1.0000     -11.323762      -308.1352
  50   1.0000     -11.315272      -307.9042
  51   1.0000     -11.309538      -307.7482
  52   1.0000     -11.283720      -307.0456
  53   1.0000      -4.633651      -126.0880
  54   1.0000      -4.186373      -113.9170
  55   1.0000      -3.248357       -88.3923
  56   1.0000      -3.246845       -88.3511
  57   1.0000      -3.245540       -88.3156
  58   1.0000      -2.709324       -73.7245
  59   1.0000      -2.707265       -73.6684
  60   1.0000      -2.706013       -73.6344
  61   1.0000      -1.500221       -40.8231
  62   1.0000      -1.488004       -40.4907
  63   1.0000      -1.481973       -40.3265
  64   1.0000      -1.472150       -40.0592
  65   1.0000      -1.467178       -39.9240
  66   1.0000      -1.464719       -39.8570
  67   1.0000      -1.456832       -39.6424
  68   1.0000      -1.450209       -39.4622
  69   1.0000      -1.443889       -39.2902
  70   1.0000      -1.418928       -38.6110
  71   1.0000      -1.404821       -38.2271
  72   1.0000      -1.396457       -37.9995
  73   1.0000      -1.386597       -37.7312
  74   1.0000      -1.361181       -37.0396
  75   1.0000      -1.347059       -36.6553
  76   1.0000      -1.321709       -35.9655
  77   1.0000      -1.299806       -35.3695
  78   1.0000      -1.293955       -35.2103
  79   1.0000      -1.286696       -35.0128
  80   1.0000      -1.279027       -34.8041
  81   1.0000      -1.141273       -31.0556
  82   1.0000      -1.130599       -30.7652
  83   1.0000      -1.130489       -30.7622
  84   1.0000      -1.118660       -30.4403
  85   1.0000      -1.109677       -30.1958
  86   1.0000      -1.076295       -29.2875
  87   1.0000      -1.046246       -28.4698
  88   1.0000      -1.040003       -28.2999
  89   1.0000      -1.026933       -27.9443
  90   1.0000      -1.017179       -27.6788
  91   1.0000      -0.988050       -26.8862
  92   1.0000      -0.982196       -26.7269
  93   1.0000      -0.962960       -26.2035
  94   1.0000      -0.962228       -26.1835
  95   1.0000      -0.955640       -26.0043
  96   1.0000      -0.953181       -25.9374
  97   1.0000      -0.952759       -25.9259
  98   1.0000      -0.938421       -25.5357
  99   1.0000      -0.928512       -25.2661
 100   1.0000      -0.924252       -25.1502
 101   1.0000      -0.921009       -25.0619
 102   1.0000      -0.908982       -24.7347
 103   1.0000      -0.905550       -24.6413
 104   1.0000      -0.901241       -24.5240
 105   1.0000      -0.884533       -24.0694
 106   1.0000      -0.879236       -23.9252
 107   1.0000      -0.871575       -23.7168
 108   1.0000      -0.869913       -23.6715
 109   1.0000      -0.857990       -23.3471
 110   1.0000      -0.850223       -23.1358
 111   1.0000      -0.836773       -22.7697
 112   1.0000      -0.808960       -22.0129
 113   1.0000      -0.800985       -21.7959
 114   1.0000      -0.780547       -21.2398
 115   1.0000      -0.775353       -21.0984
 116   1.0000      -0.761268       -20.7152
 117   1.0000      -0.750263       -20.4157
 118   1.0000      -0.748277       -20.3616
 119   1.0000      -0.742781       -20.2121
 120   1.0000      -0.739374       -20.1194
 121   1.0000      -0.734874       -19.9969
 122   1.0000      -0.730964       -19.8905
 123   1.0000      -0.729298       -19.8452
 124   1.0000      -0.726907       -19.7802
 125   1.0000      -0.724759       -19.7217
 126   1.0000      -0.720593       -19.6083
 127   1.0000      -0.720154       -19.5964
 128   1.0000      -0.716064       -19.4851
 129   1.0000      -0.713582       -19.4176
 130   1.0000      -0.712886       -19.3986
 131   1.0000      -0.711628       -19.3644
 132   1.0000      -0.707965       -19.2647
 133   1.0000      -0.701884       -19.0992
 134   1.0000      -0.698904       -19.0181
 135   1.0000      -0.698290       -19.0014
 136   1.0000      -0.696941       -18.9647
 137   1.0000      -0.693106       -18.8604
 138   1.0000      -0.692260       -18.8374
 139   1.0000      -0.686972       -18.6935
 140   1.0000      -0.684192       -18.6178
 141   1.0000      -0.678394       -18.4600
 142   1.0000      -0.675246       -18.3744
 143   1.0000      -0.674498       -18.3540
 144   1.0000      -0.666841       -18.1457
 145   1.0000      -0.657092       -17.8804
 146   1.0000      -0.645659       -17.5693
 147   1.0000      -0.641573       -17.4581
 148   1.0000      -0.637687       -17.3524
 149   1.0000      -0.630164       -17.1476
 150   1.0000      -0.626191       -17.0395
 151   1.0000      -0.623462       -16.9653
 152   1.0000      -0.618095       -16.8192
 153   1.0000      -0.615476       -16.7480
 154   1.0000      -0.611796       -16.6478
 155   1.0000      -0.610065       -16.6007
 156   1.0000      -0.608507       -16.5583
 157   1.0000      -0.603646       -16.4260
 158   1.0000      -0.601606       -16.3705
 159   1.0000      -0.585750       -15.9391
 160   1.0000      -0.582085       -15.8393
 161   1.0000      -0.569072       -15.4852
 162   1.0000      -0.557884       -15.1808
 163   1.0000      -0.555342       -15.1116
 164   1.0000      -0.555067       -15.1041
 165   1.0000      -0.544784       -14.8243
 166   1.0000      -0.543501       -14.7894
 167   1.0000      -0.540447       -14.7063
 168   1.0000      -0.534692       -14.5497
 169   1.0000      -0.531432       -14.4610
 170   1.0000      -0.527151       -14.3445
 171   1.0000      -0.523628       -14.2486
 172   1.0000      -0.519449       -14.1349
 173   1.0000      -0.515459       -14.0263
 174   1.0000      -0.508180       -13.8283
 175   1.0000      -0.506279       -13.7766
 176   1.0000      -0.491196       -13.3661
 177   1.0000      -0.485964       -13.2237
 178   1.0000      -0.483986       -13.1699
 179   1.0000      -0.481549       -13.1036
 180   1.0000      -0.474097       -12.9008
 181   1.0000      -0.451140       -12.2761
 182   1.0000      -0.444741       -12.1020
 183   1.0000      -0.439857       -11.9691
 184   1.0000      -0.433088       -11.7849
 185   1.0000      -0.428372       -11.6566
 186   1.0000      -0.420325       -11.4376
 187   1.0000      -0.407475       -11.0880
 188   0.0000       0.013345         0.3631
 189   0.0000       0.023221         0.6319
 190   0.0000       0.031598         0.8598
 191   0.0000       0.032784         0.8921
 192   0.0000       0.035396         0.9632

MULLIKEN ATOMIC CHARGES AND SPIN POPULATIONS
--------------------------------------------
   0 C :   -0.045644   -0.000274
   1 N :   -0.325780   -0.001078
   2 H :    0.292461   -0.000374
   3 C :    0.173584   -0.001224
   4 H :    0.210868   -0.000177
   5 N :   -0.261776   -0.024798
   6 C :   -0.053397    0.001961
   7 H :    0.189343   -0.000852
   8 C :   -0.098995   -0.021295
   9 N :   -0.321013   -0.001660
  10 H :    0.288254   -0.000416
  11 C :    0.171491    0.020988
  12 H :    0.190362   -0.001894
  13 N :   -0.258665   -0.038954
  14 C :   -0.001275    0.021231
  15 H :    0.175330   -0.000317
  16 C :   -0.362910    0.000993
  17 H :    0.133684    0.000410
  18 H :    0.147996    0.000234
  19 C :    0.720428    0.000648
  20 O :   -0.717494    0.029886
  21 O :   -0.615472   -0.021756
  22 C :   -0.053007    0.009373
  23 N :   -0.330762    0.002027
  24 H :    0.295213    0.000281
  25 C :    0.224442   -0.009972
  26 H :    0.176186    0.000904
  27 N :   -0.354366    0.026671
  28 C :   -0.056447   -0.009704
  29 H :    0.185509    0.000661
  30 C :   -0.052445    0.008103
  31 N :   -0.331044    0.000773
  32 H :    0.293339    0.000402
  33 C :    0.186940   -0.003860
  34 H :    0.205833    0.000559
  35 N :   -0.350056    0.024230
  36 C :   -0.067216   -0.008920
  37 H :    0.228267    0.000719
  38 C :   -0.331899   -0.003278
  39 H :    0.107831    0.000210
  40 H :    0.144998   -0.000181
  41 C :    0.640962    0.000599
  42 O :   -0.664369   -0.032882
  43 O :   -0.685689    0.000190
  44 Fe:    1.349015   -4.770791
  45 Fe:    1.319206    4.745722
  46 O :   -1.112038   -0.002521
  47 H :    0.424320    0.001191
  48 C :    0.276400   -0.003176
  49 C :    0.109518    0.003335
  50 C :    0.157259    0.000508
  51 C :    0.103341    0.000094
  52 C :    0.094897   -0.000050
  53 C :    0.116784   -0.002136
  54 O :   -0.759651    0.104308
  55 O :   -0.577147   -0.000258
  56 O :   -0.522264    0.000269
  57 O :   -0.487859    0.000094
  58 O :   -0.547250    0.000068
  59 O :   -0.571827    0.019190
  60 H :    0.108345    0.001267
  61 H :    0.104897   -0.000630
  62 H :    0.086893   -0.000282
  63 H :    0.074466    0.000002
  64 H :    0.093313   -0.000046
  65 H :    0.064842    0.000240
  66 H :    0.346220   -0.000025
  67 H :    0.334032   -0.000019
  68 H :    0.300121   -0.000012
  69 H :    0.320872   -0.000088
  70 H :    0.378049   -0.000594
  71 O :   -0.326504    0.382540
  72 O :   -0.288275    0.553796
  73 H :    0.184494   -0.000120
  74 H :    0.176765    0.001363
  75 H :    0.122712   -0.000791
  76 H :    0.191460   -0.000481
  77 H :    0.193830   -0.000352
  78 H :    0.117163    0.000200
Sum of atomic charges         :    1.0000000

LOEWDIN ATOMIC CHARGES AND SPIN POPULATIONS
-------------------------------------------
   0 C :   -0.208201   -0.001438
   1 N :    0.169961   -0.001048
   2 H :    0.215045   -0.000194
   3 C :   -0.193406   -0.001374
   4 H :    0.151540    0.000015
   5 N :    0.093161   -0.031916
   6 C :   -0.191960   -0.000185
   7 H :    0.150472   -0.000004
   8 C :   -0.210692   -0.012354
   9 N :    0.169755   -0.001154
  10 H :    0.210726   -0.000235
  11 C :   -0.201773    0.011837
  12 H :    0.143283   -0.000316
  13 N :    0.103660   -0.042978
  14 C :   -0.201306    0.009304
  15 H :    0.147039   -0.000355
  16 C :   -0.229724    0.000575
  17 H :    0.126131    0.000225
  18 H :    0.141016    0.000144
  19 C :   -0.433839    0.002413
  20 O :   -0.031526    0.042302
  21 O :    0.023562   -0.031175
  22 C :   -0.197372    0.005580
  23 N :    0.178145    0.001298
  24 H :    0.214472    0.000167
  25 C :   -0.197174   -0.005335
  26 H :    0.140842    0.000137
  27 N :    0.086228    0.032252
  28 C :   -0.213424   -0.003802
  29 H :    0.143424    0.000123
  30 C :   -0.201584    0.004689
  31 N :    0.177053    0.000870
  32 H :    0.214411    0.000198
  33 C :   -0.209084   -0.001529
  34 H :    0.145432    0.000013
  35 N :    0.075806    0.029677
  36 C :   -0.196729   -0.003104
  37 H :    0.154569    0.000080
  38 C :   -0.242738   -0.001773
  39 H :    0.129086    0.000062
  40 H :    0.129074   -0.000153
  41 C :   -0.484048   -0.001343
  42 O :   -0.035880   -0.041069
  43 O :   -0.117615    0.001025
  44 Fe:    0.673786   -4.722968
  45 Fe:    0.701005    4.691889
  46 O :   -0.367538   -0.002860
  47 H :    0.173443    0.000605
  48 C :   -0.326083    0.000945
  49 C :   -0.278502    0.001935
  50 C :   -0.286595    0.000341
  51 C :   -0.277599    0.000028
  52 C :   -0.290394    0.000246
  53 C :   -0.258364   -0.000590
  54 O :   -0.190745    0.107060
  55 O :   -0.058380   -0.000111
  56 O :   -0.042693    0.000242
  57 O :   -0.040346    0.000083
  58 O :   -0.052812    0.000035
  59 O :    0.036274    0.027462
  60 H :    0.150202   -0.000504
  61 H :    0.139783   -0.000199
  62 H :    0.143181   -0.000064
  63 H :    0.139486   -0.000003
  64 H :    0.143540   -0.000031
  65 H :    0.138463   -0.000137
  66 H :    0.208336   -0.000003
  67 H :    0.204453   -0.000007
  68 H :    0.184411   -0.000005
  69 H :    0.189155   -0.000044
  70 H :    0.229152    0.000084
  71 O :   -0.227768    0.394762
  72 O :   -0.199379    0.541925
  73 H :    0.142332   -0.000115
  74 H :    0.140841    0.000119
  75 H :    0.118129   -0.000369
  76 H :    0.145791    0.000012
  77 H :    0.146424    0.000033
  78 H :    0.113193    0.000049

  Mayer bond orders larger than 0.100000
B(  0-C ,  1-N ) :   1.1170 B(  0-C ,  6-C ) :   1.7262 B(  0-C , 73-H ) :   0.9477
B(  1-N ,  2-H ) :   0.8942 B(  1-N ,  3-C ) :   1.3105 B(  3-C ,  4-H ) :   0.9508
B(  3-C ,  5-N ) :   1.4875 B(  5-N ,  6-C ) :   1.1840 B(  5-N , 44-Fe) :   0.5842
B(  6-C ,  7-H ) :   0.9625 B(  8-C ,  9-N ) :   1.1477 B(  8-C , 14-C ) :   1.7196
B(  8-C , 74-H ) :   0.9517 B(  9-N , 10-H ) :   0.8963 B(  9-N , 11-C ) :   1.3064
B( 11-C , 12-H ) :   0.9582 B( 11-C , 13-N ) :   1.5437 B( 13-N , 14-C ) :   1.1988
B( 13-N , 44-Fe) :   0.4144 B( 14-C , 15-H ) :   0.9662 B( 16-C , 17-H ) :   0.9935
B( 16-C , 18-H ) :   0.9627 B( 16-C , 19-C ) :   0.9666 B( 16-C , 75-H ) :   0.9834
B( 19-C , 20-O ) :   1.3310 B( 19-C , 21-O ) :   1.5113 B( 20-O , 45-Fe) :   0.4185
B( 21-O , 44-Fe) :   0.3043 B( 22-C , 23-N ) :   1.1277 B( 22-C , 28-C ) :   1.7375
B( 22-C , 76-H ) :   0.9468 B( 23-N , 24-H ) :   0.8930 B( 23-N , 25-C ) :   1.3323
B( 25-C , 26-H ) :   0.9546 B( 25-C , 27-N ) :   1.4904 B( 27-N , 28-C ) :   1.1937
B( 27-N , 45-Fe) :   0.4164 B( 28-C , 29-H ) :   0.9647 B( 30-C , 31-N ) :   1.1327
B( 30-C , 36-C ) :   1.7447 B( 30-C , 77-H ) :   0.9423 B( 31-N , 32-H ) :   0.8932
B( 31-N , 33-C ) :   1.3306 B( 33-C , 34-H ) :   0.9530 B( 33-C , 35-N ) :   1.4887
B( 35-N , 36-C ) :   1.1762 B( 35-N , 45-Fe) :   0.4776 B( 36-C , 37-H ) :   0.9266
B( 38-C , 39-H ) :   0.9562 B( 38-C , 40-H ) :   0.9938 B( 38-C , 41-C ) :   0.9841
B( 38-C , 78-H ) :   0.9849 B( 41-C , 42-O ) :   1.3698 B( 41-C , 43-O ) :   1.5765
B( 42-O , 44-Fe) :   0.4163 B( 43-O , 47-H ) :   0.1270 B( 44-Fe, 46-O ) :   0.2706
B( 44-Fe, 71-O ) :   0.4373 B( 44-Fe, 72-O ) :   0.2891 B( 45-Fe, 46-O ) :   0.3653
B( 45-Fe, 54-O ) :   0.7523 B( 45-Fe, 59-O ) :   0.2323 B( 46-O , 47-H ) :   0.7419
B( 48-C , 49-C ) :   0.9350 B( 48-C , 53-C ) :   0.9939 B( 48-C , 54-O ) :   0.8394
B( 48-C , 60-H ) :   0.9931 B( 49-C , 50-C ) :   0.9733 B( 49-C , 55-O ) :   1.0759
B( 49-C , 61-H ) :   0.9716 B( 50-C , 51-C ) :   0.9758 B( 50-C , 56-O ) :   0.9881
B( 50-C , 62-H ) :   0.9975 B( 51-C , 52-C ) :   1.0147 B( 51-C , 57-O ) :   0.9783
B( 51-C , 63-H ) :   0.9851 B( 52-C , 53-C ) :   1.0007 B( 52-C , 58-O ) :   0.9529
B( 52-C , 64-H ) :   0.9915 B( 53-C , 59-O ) :   0.7052 B( 53-C , 65-H ) :   0.9865
B( 55-O , 66-H ) :   0.8795 B( 56-O , 67-H ) :   0.8802 B( 57-O , 68-H ) :   0.8924
B( 58-O , 69-H ) :   0.8809 B( 59-O , 70-H ) :   0.8413 B( 71-O , 72-O ) :   1.1698

FINAL SINGLE POINT ENERGY     -4787.434530357948

DIPOLE MOMENT
-------------
                                X             Y             Z
Electronic contribution:     -7.82536       6.07664      -7.68465
Nuclear contribution   :      2.82395      -8.54805       3.28465
                        -----------------------------------------
Total Dipole Moment    :     -5.00141      -2.47142      -4.40000
                        -----------------------------------------
Magnitude (a.u.)       :      7.10507
Magnitude (Debye)      :     18.05965

Rotational constants in cm-1:     0.002821     0.001898     0.001592
Rotational constants in MHz :    84.561491    56.909288    47.739255

                             ****ORCA TERMINATED NORMALLY****
TOTAL RUN TIME: 0 days 3 hours 52 minutes 53 seconds 399 msec
