                         Program Version 5.0.0 -  RELEASE  -
|  1> ! def2-svp pal8 UseSym
|  2> ! MOread
|  3>
|  4> %moinp  "FeH2O62+-rohf.gbw"
|  5>
|  6> %casscf
|  7>     nel     6
|  8>     norb    5
|  9>     irrep   0
| 10>     mult    3
| 11>     nroots  1
| 12> end
| 13>
| 14> *xyz 2 3
| 15>  Fe     -0.64257176050830       0.51803920561668        0.11515259480577
| 16>  O      0.11174687498777        2.15027362958097        -0.78003307659188
| 17>  H      0.70766775417542        2.71590643817051        -0.25346860209865
| 18>  O      -1.31193844940493       -0.30254437211926       -1.59153974321848
| 19>  H      -1.93648366806763       0.13093135988795        -2.20090760771949
| 20>  O      0.02720918798052        1.33940572113505        1.82122676893196
| 21>  H      0.65258765622944        0.90686870076571        2.43040311553976
| 22>  O      -1.39648053530566       -1.11444807905756       1.01023916292248
| 23>  H      -1.99331392681300       -1.67940484230818       0.48397490889195
| 24>  O      -2.28682023617329       1.63340828371306        0.41005372492049
| 25>  H      -2.35377021104600       2.47291065207153        -0.08301808819513
| 26>  O      1.00194372931180        -0.59712335622834       -0.17950165163229
| 27>  H      1.06807766676477        -1.43758842942053       0.31202545851205
| 28>  H      -3.18922098471738       1.27280247171927        0.48036417156888
| 29>  H      -0.66521991563992       -0.78352006296416       -2.14179468111308
| 30>  H      1.90454646424149        -0.23678289755293       -0.24845043594753
| 31>  H      0.43776650602076        2.17113603799071        -1.69794346797289
| 32>  H      -0.61875604533523       1.82123954705219        2.37159866149671
| 33>  H      -1.72126010670064       -1.13595000805262       1.92856878689935
| 34> *
| 35>
| 36>                          ****END OF INPUT****

CARTESIAN COORDINATES (ANGSTROEM)
---------------------------------
  Fe    -0.000128   -0.000085    0.000049
  O      0.754191    1.632150   -0.895137
  H      1.350112    2.197783   -0.368572
  O     -0.669495   -0.820668   -1.706643
  H     -1.294040   -0.387193   -2.316011
  O      0.669653    0.821282    1.706123
  H      1.295032    0.388745    2.315299
  O     -0.754037   -1.632572    0.895135
  H     -1.350870   -2.197529    0.368871
  O     -1.644376    1.115284    0.294950
  H     -1.711326    1.954787   -0.198122
  O      1.644388   -1.115247   -0.294605
  H      1.710522   -1.955712    0.196922
  H     -2.546777    0.754679    0.365260
  H     -0.022776   -1.301644   -2.256898
  H      2.546990   -0.754907   -0.363554
  H      1.080210    1.653012   -1.813047
  H      0.023688    1.303116    2.256495
  H     -1.078816   -1.654074    1.813465

 Total Charge           Charge          ....    2
 Multiplicity           Mult            ....    3
 Number of Electrons    NEL             ....   84
 Basis Dimension        Dim             ....  175

ORBITAL ENERGIES
----------------

  NO   OCC          E(Eh)            E(eV)
   0   2.0000    -261.596541     -7118.4038
   1   2.0000     -32.163250      -875.2065
   2   2.0000     -27.655580      -752.5466
   3   2.0000     -27.655506      -752.5446
   4   2.0000     -27.648521      -752.3545
   5   2.0000     -20.908237      -568.9421
   6   2.0000     -20.908217      -568.9415
   7   2.0000     -20.908204      -568.9412
   8   2.0000     -20.908171      -568.9402
   9   2.0000     -20.908146      -568.9396
  10   2.0000     -20.908109      -568.9386
  11   2.0000      -4.348258      -118.3221
  12   2.0000      -2.988713       -81.3270
  13   2.0000      -2.988662       -81.3256
  14   2.0000      -2.985379       -81.2363
  15   2.0000      -1.689113       -45.9631
  16   2.0000      -1.677648       -45.6511
  17   2.0000      -1.673173       -45.5293
  18   2.0000      -1.673140       -45.5285
  19   2.0000      -1.671059       -45.4718
  20   2.0000      -1.671024       -45.4709
  21   2.0000      -1.069174       -29.0937
  22   2.0000      -1.066461       -29.0199
  23   2.0000      -1.059946       -28.8426
  24   2.0000      -1.059919       -28.8419
  25   2.0000      -1.059004       -28.8170
  26   2.0000      -1.058985       -28.8165
  27   2.0000      -1.010614       -27.5002
  28   2.0000      -0.964349       -26.2413
  29   2.0000      -0.957328       -26.0502
  30   2.0000      -0.957313       -26.0498
  31   2.0000      -0.951484       -25.8912
  32   2.0000      -0.951448       -25.8902
  33   2.0000      -0.873288       -23.7634
  34   2.0000      -0.873245       -23.7622
  35   2.0000      -0.870881       -23.6979
  36   2.0000      -0.870857       -23.6972
  37   2.0000      -0.866044       -23.5662
  38   2.0000      -0.852734       -23.2041
  39   1.9418      -0.840305       -22.8659
  40   1.4962      -0.618307       -16.8250
  41   1.4881      -0.615029       -16.7358
  42   0.5412      -0.171537        -4.6678
  43   0.5327      -0.168127        -4.5750
  44   0.0000      -0.199095        -5.4176
  45   0.0000      -0.117556        -3.1989
  46   0.0000      -0.117536        -3.1983
  47   0.0000      -0.104588        -2.8460
  48   0.0000      -0.070103        -1.9076

MULLIKEN ATOMIC CHARGES AND SPIN DENSITIES
------------------------------------------
   0 Fe:    1.259632    1.952298
   1 O :   -0.412073    0.006431
   2 H :    0.271997    0.000783
   3 O :   -0.411998    0.006356
   4 H :    0.263435    0.000790
   5 O :   -0.412052    0.006356
   6 H :    0.263434    0.000790
   7 O :   -0.412095    0.006429
   8 H :    0.272018    0.000783
   9 O :   -0.411998    0.006356
  10 H :    0.272015    0.000776
  11 O :   -0.412042    0.006355
  12 H :    0.272027    0.000775
  13 H :    0.263414    0.000793
  14 H :    0.272026    0.000770
  15 H :    0.263409    0.000793
  16 H :    0.263382    0.000798
  17 H :    0.272048    0.000770
  18 H :    0.263420    0.000798
Sum of atomic charges       :    2.0000000

LOEWDIN ATOMIC CHARGES AND SPIN DENSITIES
-----------------------------------------
   0 Fe:    0.576622    1.926730
   1 O :   -0.038983    0.010300
   2 H :    0.139536    0.001000
   3 O :   -0.038858    0.010171
   4 H :    0.136597    0.001000
   5 O :   -0.038846    0.010172
   6 H :    0.136592    0.001000
   7 O :   -0.038974    0.010297
   8 H :    0.139557    0.001000
   9 O :   -0.038910    0.010178
  10 H :    0.139578    0.000991
  11 O :   -0.038935    0.010177
  12 H :    0.139573    0.000990
  13 H :    0.136591    0.001002
  14 H :    0.139578    0.000985
  15 H :    0.136581    0.001002
  16 H :    0.136545    0.001010
  17 H :    0.139589    0.000985
  18 H :    0.136566    0.001010

  Mayer bond orders larger than 0.100000
B(  0-Fe,  1-O ) :   0.2196 B(  0-Fe,  3-O ) :   0.2199 B(  0-Fe,  5-O ) :   0.2198
B(  0-Fe,  7-O ) :   0.2196 B(  0-Fe,  9-O ) :   0.2198 B(  0-Fe, 11-O ) :   0.2197
B(  1-O ,  2-H ) :   0.9280 B(  1-O , 16-H ) :   0.9355 B(  3-O ,  4-H ) :   0.9354
B(  3-O , 14-H ) :   0.9280 B(  5-O ,  6-H ) :   0.9354 B(  5-O , 17-H ) :   0.9280
B(  7-O ,  8-H ) :   0.9280 B(  7-O , 18-H ) :   0.9354 B(  9-O , 10-H ) :   0.9280
B(  9-O , 13-H ) :   0.9354 B( 11-O , 12-H ) :   0.9280 B( 11-O , 15-H ) :   0.9355

FINAL SINGLE POINT ENERGY     -1717.640176042379

DIPOLE MOMENT
-------------
                                X             Y             Z
Electronic contribution:     -0.00157      -0.00098       0.00071
Nuclear contribution   :      0.00229       0.00130      -0.00008
                        -----------------------------------------
Total Dipole Moment    :      0.00073       0.00032       0.00063
                        -----------------------------------------
Magnitude (a.u.)       :      0.00101
Magnitude (Debye)      :      0.00258

Rotational constants in cm-1:     0.057213     0.051955     0.051945
Rotational constants in MHz :  1715.201752  1557.579206  1557.273951

                             ****ORCA TERMINATED NORMALLY****
TOTAL RUN TIME: 0 days 0 hours 0 minutes 26 seconds 792 msec
