                         Program Version 5.0.0 -  RELEASE  -
|  1> ! def2-svp pal8 UseSym
|  2> ! MOread
|  3>
|  4> %moinp  "FeH2O62+-rohf.gbw"
|  5>
|  6> %casscf
|  7>     nel     6
|  8>     norb    5
|  9>     irrep   0
| 10>     mult    1
| 11>     nroots  1
| 12> end
| 13>
| 14> *xyz 2 1
| 15>  Fe     -0.64257176050830       0.51803920561668        0.11515259480577
| 16>  O      0.11174687498777        2.15027362958097        -0.78003307659188
| 17>  H      0.70766775417542        2.71590643817051        -0.25346860209865
| 18>  O      -1.31193844940493       -0.30254437211926       -1.59153974321848
| 19>  H      -1.93648366806763       0.13093135988795        -2.20090760771949
| 20>  O      0.02720918798052        1.33940572113505        1.82122676893196
| 21>  H      0.65258765622944        0.90686870076571        2.43040311553976
| 22>  O      -1.39648053530566       -1.11444807905756       1.01023916292248
| 23>  H      -1.99331392681300       -1.67940484230818       0.48397490889195
| 24>  O      -2.28682023617329       1.63340828371306        0.41005372492049
| 25>  H      -2.35377021104600       2.47291065207153        -0.08301808819513
| 26>  O      1.00194372931180        -0.59712335622834       -0.17950165163229
| 27>  H      1.06807766676477        -1.43758842942053       0.31202545851205
| 28>  H      -3.18922098471738       1.27280247171927        0.48036417156888
| 29>  H      -0.66521991563992       -0.78352006296416       -2.14179468111308
| 30>  H      1.90454646424149        -0.23678289755293       -0.24845043594753
| 31>  H      0.43776650602076        2.17113603799071        -1.69794346797289
| 32>  H      -0.61875604533523       1.82123954705219        2.37159866149671
| 33>  H      -1.72126010670064       -1.13595000805262       1.92856878689935
| 34> *
| 35>
| 36>                          ****END OF INPUT****

CARTESIAN COORDINATES (ANGSTROEM)
---------------------------------
  Fe    -0.000128   -0.000085    0.000049
  O      0.754191    1.632150   -0.895137
  H      1.350112    2.197783   -0.368572
  O     -0.669495   -0.820668   -1.706643
  H     -1.294040   -0.387193   -2.316011
  O      0.669653    0.821282    1.706123
  H      1.295032    0.388745    2.315299
  O     -0.754037   -1.632572    0.895135
  H     -1.350870   -2.197529    0.368871
  O     -1.644376    1.115284    0.294950
  H     -1.711326    1.954787   -0.198122
  O      1.644388   -1.115247   -0.294605
  H      1.710522   -1.955712    0.196922
  H     -2.546777    0.754679    0.365260
  H     -0.022776   -1.301644   -2.256898
  H      2.546990   -0.754907   -0.363554
  H      1.080210    1.653012   -1.813047
  H      0.023688    1.303116    2.256495
  H     -1.078816   -1.654074    1.813465

 Total Charge           Charge          ....    2
 Multiplicity           Mult            ....    1
 Number of Electrons    NEL             ....   84
 Basis Dimension        Dim             ....  175

ORBITAL ENERGIES
----------------

  NO   OCC          E(Eh)            E(eV)
   0   2.0000    -261.616272     -7118.9407
   1   2.0000     -32.182009      -875.7170
   2   2.0000     -27.672035      -752.9944
   3   2.0000     -27.671125      -752.9696
   4   2.0000     -27.671123      -752.9695
   5   2.0000     -20.909968      -568.9892
   6   2.0000     -20.909963      -568.9890
   7   2.0000     -20.909957      -568.9888
   8   2.0000     -20.909944      -568.9885
   9   2.0000     -20.909919      -568.9878
  10   2.0000     -20.909905      -568.9875
  11   2.0000      -4.408768      -119.9687
  12   2.0000      -2.992915       -81.4414
  13   2.0000      -2.991183       -81.3942
  14   2.0000      -2.991182       -81.3942
  15   2.0000      -1.688874       -45.9566
  16   2.0000      -1.677459       -45.6460
  17   2.0000      -1.672906       -45.5221
  18   2.0000      -1.672899       -45.5219
  19   2.0000      -1.670777       -45.4642
  20   2.0000      -1.670767       -45.4639
  21   2.0000      -1.069468       -29.1017
  22   2.0000      -1.066622       -29.0243
  23   2.0000      -1.059972       -28.8433
  24   2.0000      -1.059951       -28.8427
  25   2.0000      -1.059024       -28.8175
  26   2.0000      -1.059003       -28.8169
  27   2.0000      -1.009351       -27.4658
  28   2.0000      -0.963375       -26.2148
  29   2.0000      -0.953788       -25.9539
  30   2.0000      -0.953761       -25.9532
  31   2.0000      -0.949947       -25.8494
  32   2.0000      -0.949927       -25.8488
  33   2.0000      -0.872359       -23.7381
  34   2.0000      -0.872332       -23.7374
  35   2.0000      -0.870775       -23.6950
  36   2.0000      -0.870765       -23.6947
  37   2.0000      -0.865962       -23.5640
  38   2.0000      -0.852640       -23.2015
  39   1.9660      -0.808365       -21.9967
  40   1.9617      -0.803482       -21.8639
  41   1.9617      -0.803476       -21.8637
  42   0.0553       0.032891         0.8950
  43   0.0553       0.032908         0.8955
  44   0.0000      -0.198436        -5.3997
  45   0.0000      -0.117137        -3.1875
  46   0.0000      -0.117123        -3.1871
  47   0.0000      -0.104455        -2.8424
  48   0.0000      -0.070114        -1.9079

MULLIKEN ATOMIC CHARGES
-----------------------
   0 Fe:    1.215286
   1 O :   -0.405128
   2 H :    0.271691
   3 O :   -0.405140
   4 H :    0.264239
   5 O :   -0.405196
   6 H :    0.264240
   7 O :   -0.405151
   8 H :    0.271712
   9 O :   -0.405121
  10 H :    0.271694
  11 O :   -0.405169
  12 H :    0.271706
  13 H :    0.264226
  14 H :    0.271699
  15 H :    0.264222
  16 H :    0.264215
  17 H :    0.271723
  18 H :    0.264252
Sum of atomic charges:    2.0000000

LOEWDIN ATOMIC CHARGES
----------------------
   0 Fe:    0.516223
   1 O :   -0.030381
   2 H :    0.139831
   3 O :   -0.030374
   4 H :    0.137837
   5 O :   -0.030362
   6 H :    0.137832
   7 O :   -0.030374
   8 H :    0.139852
   9 O :   -0.030393
  10 H :    0.139857
  11 O :   -0.030421
  12 H :    0.139853
  13 H :    0.137837
  14 H :    0.139851
  15 H :    0.137828
  16 H :    0.137811
  17 H :    0.139863
  18 H :    0.137831

  Mayer bond orders larger than 0.100000
B(  0-Fe,  1-O ) :   0.2438 B(  0-Fe,  3-O ) :   0.2438 B(  0-Fe,  5-O ) :   0.2437
B(  0-Fe,  7-O ) :   0.2438 B(  0-Fe,  9-O ) :   0.2438 B(  0-Fe, 11-O ) :   0.2438
B(  1-O ,  2-H ) :   0.9279 B(  1-O , 16-H ) :   0.9351 B(  3-O ,  4-H ) :   0.9351
B(  3-O , 14-H ) :   0.9279 B(  5-O ,  6-H ) :   0.9351 B(  5-O , 17-H ) :   0.9279
B(  7-O ,  8-H ) :   0.9279 B(  7-O , 18-H ) :   0.9351 B(  9-O , 10-H ) :   0.9279
B(  9-O , 13-H ) :   0.9351 B( 11-O , 12-H ) :   0.9279 B( 11-O , 15-H ) :   0.9351

FINAL SINGLE POINT ENERGY     -1717.635352719439

DIPOLE MOMENT
-------------
                                X             Y             Z
Electronic contribution:     -0.00152      -0.00096       0.00071
Nuclear contribution   :      0.00229       0.00130      -0.00008
                        -----------------------------------------
Total Dipole Moment    :      0.00077       0.00035       0.00063
                        -----------------------------------------
Magnitude (a.u.)       :      0.00106
Magnitude (Debye)      :      0.00269

Rotational constants in cm-1:     0.057213     0.051955     0.051945
Rotational constants in MHz :  1715.201752  1557.579206  1557.273951

                             ****ORCA TERMINATED NORMALLY****
TOTAL RUN TIME: 0 days 0 hours 0 minutes 21 seconds 169 msec
