                         Program Version 5.0.0 -  RELEASE  -
|  1> ! ROHF def2-svp pal8 UseSym
|  2>
|  3> *xyz 2 5
|  4>  Fe     -0.64257176050830       0.51803920561668        0.11515259480577
|  5>  O      0.11174687498777        2.15027362958097        -0.78003307659188
|  6>  H      0.70766775417542        2.71590643817051        -0.25346860209865
|  7>  O      -1.31193844940493       -0.30254437211926       -1.59153974321848
|  8>  H      -1.93648366806763       0.13093135988795        -2.20090760771949
|  9>  O      0.02720918798052        1.33940572113505        1.82122676893196
| 10>  H      0.65258765622944        0.90686870076571        2.43040311553976
| 11>  O      -1.39648053530566       -1.11444807905756       1.01023916292248
| 12>  H      -1.99331392681300       -1.67940484230818       0.48397490889195
| 13>  O      -2.28682023617329       1.63340828371306        0.41005372492049
| 14>  H      -2.35377021104600       2.47291065207153        -0.08301808819513
| 15>  O      1.00194372931180        -0.59712335622834       -0.17950165163229
| 16>  H      1.06807766676477        -1.43758842942053       0.31202545851205
| 17>  H      -3.18922098471738       1.27280247171927        0.48036417156888
| 18>  H      -0.66521991563992       -0.78352006296416       -2.14179468111308
| 19>  H      1.90454646424149        -0.23678289755293       -0.24845043594753
| 20>  H      0.43776650602076        2.17113603799071        -1.69794346797289
| 21>  H      -0.61875604533523       1.82123954705219        2.37159866149671
| 22>  H      -1.72126010670064       -1.13595000805262       1.92856878689935
| 23> *
| 24>
| 25>                          ****END OF INPUT****

CARTESIAN COORDINATES (ANGSTROEM)
---------------------------------
  Fe    -0.000128   -0.000085    0.000049
  O      0.754191    1.632150   -0.895137
  H      1.350112    2.197783   -0.368572
  O     -0.669495   -0.820668   -1.706643
  H     -1.294040   -0.387193   -2.316011
  O      0.669653    0.821282    1.706123
  H      1.295032    0.388745    2.315299
  O     -0.754037   -1.632572    0.895135
  H     -1.350870   -2.197529    0.368871
  O     -1.644376    1.115284    0.294950
  H     -1.711326    1.954787   -0.198122
  O      1.644388   -1.115247   -0.294605
  H      1.710522   -1.955712    0.196922
  H     -2.546777    0.754679    0.365260
  H     -0.022776   -1.301644   -2.256898
  H      2.546990   -0.754907   -0.363554
  H      1.080210    1.653012   -1.813047
  H      0.023688    1.303116    2.256495
  H     -1.078816   -1.654074    1.813465

 Total Charge           Charge          ....    2
 Multiplicity           Mult            ....    5
 Number of Electrons    NEL             ....   84
 Basis Dimension        Dim             ....  175

ORBITAL ENERGIES
----------------

  NO   OCC          E(Eh)            E(eV)
   0   2.0000    -261.568320     -7117.6358
   1   2.0000     -32.138148      -874.5235
   2   2.0000     -27.633018      -751.9327
   3   2.0000     -27.632830      -751.9275
   4   2.0000     -27.614848      -751.4382
   5   2.0000     -20.906519      -568.8953
   6   2.0000     -20.906495      -568.8946
   7   2.0000     -20.906484      -568.8943
   8   2.0000     -20.906452      -568.8935
   9   2.0000     -20.906446      -568.8933
  10   2.0000     -20.906412      -568.8924
  11   2.0000      -4.396712      -119.6406
  12   2.0000      -2.984189       -81.2039
  13   2.0000      -2.984054       -81.2002
  14   2.0000      -2.972320       -80.8809
  15   2.0000      -1.689468       -45.9728
  16   2.0000      -1.677816       -45.6557
  17   2.0000      -1.673468       -45.5374
  18   2.0000      -1.673423       -45.5362
  19   2.0000      -1.671301       -45.4784
  20   2.0000      -1.671258       -45.4772
  21   2.0000      -1.072011       -29.1709
  22   2.0000      -1.066184       -29.0123
  23   2.0000      -1.059737       -28.8369
  24   2.0000      -1.059676       -28.8352
  25   2.0000      -1.059023       -28.8175
  26   2.0000      -1.058959       -28.8157
  27   2.0000      -1.012365       -27.5479
  28   2.0000      -0.965239       -26.2655
  29   2.0000      -0.959197       -26.1011
  30   2.0000      -0.959142       -26.0996
  31   2.0000      -0.953171       -25.9371
  32   2.0000      -0.953132       -25.9360
  33   2.0000      -0.873343       -23.7649
  34   2.0000      -0.873237       -23.7620
  35   2.0000      -0.873189       -23.7607
  36   2.0000      -0.871029       -23.7019
  37   2.0000      -0.870979       -23.7005
  38   2.0000      -0.852866       -23.2077
  39   2.0000      -0.769359       -20.9353
  40   1.0000      -0.932577       -25.3767
  41   1.0000      -0.932545       -25.3758
  42   1.0000      -0.876193       -23.8424
  43   1.0000      -0.875840       -23.8328
  44   0.0000      -0.200076        -5.4443
  45   0.0000      -0.118489        -3.2242
  46   0.0000      -0.118470        -3.2237
  47   0.0000      -0.104978        -2.8566
  48   0.0000      -0.071805        -1.9539

MULLIKEN ATOMIC CHARGES AND SPIN POPULATIONS
--------------------------------------------
   0 Fe:    1.308227    3.922504
   1 O :   -0.419520    0.010356
   2 H :    0.272546    0.001325
   3 O :   -0.419468    0.010350
   4 H :    0.262268    0.001248
   5 O :   -0.419520    0.010347
   6 H :    0.262266    0.001248
   7 O :   -0.419541    0.010353
   8 H :    0.272567    0.001325
   9 O :   -0.419457    0.010328
  10 H :    0.272504    0.001325
  11 O :   -0.419497    0.010327
  12 H :    0.272516    0.001324
  13 H :    0.262244    0.001248
  14 H :    0.272502    0.001321
  15 H :    0.262239    0.001249
  16 H :    0.262280    0.001251
  17 H :    0.272522    0.001322
  18 H :    0.262320    0.001251
Sum of atomic charges         :    2.0000000

LOEWDIN ATOMIC CHARGES AND SPIN POPULATIONS
-------------------------------------------
   0 Fe:    0.639002    3.870405
   1 O :   -0.047657    0.018171
   2 H :    0.139468    0.001760
   3 O :   -0.047623    0.018165
   4 H :    0.135018    0.001682
   5 O :   -0.047610    0.018165
   6 H :    0.135013    0.001682
   7 O :   -0.047647    0.018165
   8 H :    0.139490    0.001761
   9 O :   -0.047664    0.018139
  10 H :    0.139464    0.001760
  11 O :   -0.047687    0.018138
  12 H :    0.139460    0.001758
  13 H :    0.135009    0.001682
  14 H :    0.139452    0.001756
  15 H :    0.134999    0.001682
  16 H :    0.135015    0.001686
  17 H :    0.139462    0.001757
  18 H :    0.135038    0.001686

  Mayer bond orders larger than 0.100000
B(  0-Fe,  1-O ) :   0.2069 B(  0-Fe,  3-O ) :   0.2069 B(  0-Fe,  5-O ) :   0.2068
B(  0-Fe,  7-O ) :   0.2069 B(  0-Fe,  9-O ) :   0.2068 B(  0-Fe, 11-O ) :   0.2067
B(  1-O ,  2-H ) :   0.9281 B(  1-O , 16-H ) :   0.9359 B(  3-O ,  4-H ) :   0.9359
B(  3-O , 14-H ) :   0.9281 B(  5-O ,  6-H ) :   0.9359 B(  5-O , 17-H ) :   0.9281
B(  7-O ,  8-H ) :   0.9281 B(  7-O , 18-H ) :   0.9359 B(  9-O , 10-H ) :   0.9281
B(  9-O , 13-H ) :   0.9360 B( 11-O , 12-H ) :   0.9281 B( 11-O , 15-H ) :   0.9360

FINAL SINGLE POINT ENERGY     -1717.703726800794

DIPOLE MOMENT
-------------
                                X             Y             Z
Electronic contribution:     -0.00162      -0.00100       0.00070
Nuclear contribution   :      0.00229       0.00130      -0.00008
                        -----------------------------------------
Total Dipole Moment    :      0.00067       0.00030       0.00063
                        -----------------------------------------
Magnitude (a.u.)       :      0.00097
Magnitude (Debye)      :      0.00246

Rotational constants in cm-1:     0.057213     0.051955     0.051945
Rotational constants in MHz :  1715.201752  1557.579206  1557.273951

                             ****ORCA TERMINATED NORMALLY****
TOTAL RUN TIME: 0 days 0 hours 0 minutes 9 seconds 536 msec
