                         Program Version 5.0.0 -  RELEASE  -
|  1> ! UHF aug-cc-pVQZ pal8 TightSCF
|  2>
|  3> %scf
|  4> 	STABPerform	True
|  5> 	STABRestartUHFifUnstable	True
|  6> end
|  7>
|  8> *xyz 0 1
|  9>  B	0.0	0.0	0.0
| 10>  H	1.8	0.0	0.0
| 11> *
| 12>
| 13>                          ****END OF INPUT****

CARTESIAN COORDINATES (ANGSTROEM)
---------------------------------
  B      0.000000    0.000000    0.000000
  H      1.800000    0.000000    0.000000

 Total Charge           Charge          ....    0
 Multiplicity           Mult            ....    1
 Number of Electrons    NEL             ....    6
 Basis Dimension        Dim             ....  126

ORBITAL ENERGIES
----------------
                 SPIN UP ORBITALS
  NO   OCC          E(Eh)            E(eV)
   0   1.0000      -7.747938      -210.8321
   1   1.0000      -0.562212       -15.2986
   2   1.0000      -0.356830        -9.7098
   3   0.0000       0.018574         0.5054
   4   0.0000       0.022927         0.6239
   5   0.0000       0.032033         0.8717
   6   0.0000       0.050257         1.3676
   7   0.0000       0.071540         1.9467

                 SPIN DOWN ORBITALS
  NO   OCC          E(Eh)            E(eV)
   0   1.0000      -7.747938      -210.8321
   1   1.0000      -0.562212       -15.2986
   2   1.0000      -0.356830        -9.7098
   3   0.0000       0.018574         0.5054
   4   0.0000       0.022927         0.6239
   5   0.0000       0.032033         0.8717
   6   0.0000       0.050257         1.3676
   7   0.0000       0.071540         1.9467

MULLIKEN ATOMIC CHARGES AND SPIN POPULATIONS
--------------------------------------------
   0 B :    0.161249    0.000000
   1 H :   -0.161249   -0.000000
Sum of atomic charges         :   -0.0000000

LOEWDIN ATOMIC CHARGES AND SPIN POPULATIONS
-------------------------------------------
   0 B :    0.301215    0.000000
   1 H :   -0.301215   -0.000000

  Mayer bond orders larger than 0.100000
B(  0-B ,  1-H ) :   0.9758

FINAL SINGLE POINT ENERGY       -25.077155924974

DIPOLE MOMENT
-------------
                                X             Y             Z
Electronic contribution:     -1.88361      -0.00000      -0.00000
Nuclear contribution   :      1.66075       0.00000       0.00000
                        -----------------------------------------
Total Dipole Moment    :     -0.22286      -0.00000      -0.00000
                        -----------------------------------------
Magnitude (a.u.)       :      0.22286
Magnitude (Debye)      :      0.56648

Rotational constants in cm-1:     0.000000     5.642995     5.642995
Rotational constants in MHz :     0.000000 169172.728284 169172.728284

                             ****ORCA TERMINATED NORMALLY****
TOTAL RUN TIME: 0 days 0 hours 0 minutes 11 seconds 425 msec
