                         Program Version 5.0.0 -  RELEASE  -
|  1> ! UHF aug-cc-pVQZ pal8 VeryTightSCF
|  2>
|  3> %scf
|  4> 	STABPerform	True
|  5> 	STABRestartUHFifUnstable	True
|  6> end
|  7>
|  8> *xyz 0 1
|  9>  B	0.0	0.0	0.0
| 10>  H	1.1	0.0	0.0
| 11> *
| 12>
| 13>                          ****END OF INPUT****

CARTESIAN COORDINATES (ANGSTROEM)
---------------------------------
  B      0.000000    0.000000    0.000000
  H      1.100000    0.000000    0.000000

 Total Charge           Charge          ....    0
 Multiplicity           Mult            ....    1
 Number of Electrons    NEL             ....    6
 Basis Dimension        Dim             ....  126

ORBITAL ENERGIES
----------------
                 SPIN UP ORBITALS
  NO   OCC          E(Eh)            E(eV)
   0   1.0000      -7.658880      -208.4087
   1   1.0000      -0.674670       -18.3587
   2   1.0000      -0.369329       -10.0500
   3   0.0000       0.026316         0.7161
   4   0.0000       0.029400         0.8000
   5   0.0000       0.033812         0.9201
   6   0.0000       0.044058         1.1989
   7   0.0000       0.082006         2.2315

                 SPIN DOWN ORBITALS
  NO   OCC          E(Eh)            E(eV)
   0   1.0000      -7.658880      -208.4087
   1   1.0000      -0.674670       -18.3587
   2   1.0000      -0.369329       -10.0500
   3   0.0000       0.026316         0.7161
   4   0.0000       0.029400         0.8000
   5   0.0000       0.033812         0.9201
   6   0.0000       0.044058         1.1989
   7   0.0000       0.082006         2.2315

MULLIKEN ATOMIC CHARGES AND SPIN POPULATIONS
--------------------------------------------
   0 B :    0.089795   -0.000000
   1 H :   -0.089795    0.000000
Sum of atomic charges         :   -0.0000000

LOEWDIN ATOMIC CHARGES AND SPIN POPULATIONS
-------------------------------------------
   0 B :    0.568224   -0.000000
   1 H :   -0.568224    0.000000

  Mayer bond orders larger than 0.100000
B(  0-B ,  1-H ) :   0.8815

FINAL SINGLE POINT ENERGY       -25.132090418495

DIPOLE MOMENT
-------------
                                X             Y             Z
Electronic contribution:     -0.42356       0.00000      -0.00000
Nuclear contribution   :      1.01490       0.00000       0.00000
                        -----------------------------------------
Total Dipole Moment    :      0.59134       0.00000      -0.00000
                        -----------------------------------------
Magnitude (a.u.)       :      0.59134
Magnitude (Debye)      :      1.50307

Rotational constants in cm-1:     0.000000    15.110168    15.110168
Rotational constants in MHz :     0.000000 452991.437720 452991.437720

                             ****ORCA TERMINATED NORMALLY****
TOTAL RUN TIME: 0 days 0 hours 0 minutes 12 seconds 352 msec
