                         Program Version 5.0.0 -  RELEASE  -
|  1> ! UHF aug-cc-pVQZ pal8 VeryTightSCF UseSym
|  2>
|  3> %scf
|  4> 	STABPerform	True
|  5> 	STABRestartUHFifUnstable	True
|  6> end
|  7>
|  8> *xyz 0 1
|  9>  B	0.0	0.0	0.0
| 10>  H	2.8	0.0	0.0
| 11> **                         ****END OF INPUT****

CARTESIAN COORDINATES (ANGSTROEM)
---------------------------------
  B      0.000000    0.000000   -0.238822
  H      0.000000    0.000000    2.561178

 Total Charge           Charge          ....    0
 Multiplicity           Mult            ....    1
 Number of Electrons    NEL             ....    6
 Basis Dimension        Dim             ....  126

ORBITAL ENERGIES
----------------
                 SPIN UP ORBITALS
  NO   OCC          E(Eh)            E(eV)    Irrep
   0   1.0000      -7.710727      -209.8195    1-A1
   1   1.0000      -0.549315       -14.9476    2-A1
   2   1.0000      -0.321590        -8.7509    3-A1
   3   0.0000       0.021586         0.5874    1-B2
   4   0.0000       0.021586         0.5874    1-B1
   5   0.0000       0.028612         0.7786    4-A1
   6   0.0000       0.046896         1.2761    5-A1
   7   0.0000       0.074813         2.0358    2-B1

                 SPIN DOWN ORBITALS
  NO   OCC          E(Eh)            E(eV)    Irrep
   0   1.0000      -7.697074      -209.4480    1-A1
   1   1.0000      -0.491240       -13.3673    2-A1
   2   1.0000      -0.440985       -11.9998    3-A1
   3   0.0000       0.025045         0.6815    1-B2
   4   0.0000       0.025045         0.6815    1-B1
   5   0.0000       0.038057         1.0356    4-A1
   6   0.0000       0.055173         1.5013    5-A1
   7   0.0000       0.080965         2.2032    2-B2

MULLIKEN ATOMIC CHARGES AND SPIN POPULATIONS
--------------------------------------------
   0 B :    0.021226    0.984222
   1 H :   -0.021226   -0.984222
Sum of atomic charges         :    0.0000000

LOEWDIN ATOMIC CHARGES AND SPIN POPULATIONS
-------------------------------------------
   0 B :    0.061009    0.773393
   1 H :   -0.061009   -0.773393

FINAL SINGLE POINT ENERGY       -25.035012831272

DIPOLE MOMENT
-------------
                                X             Y             Z
Electronic contribution:     -0.00000       0.00000      -2.71195
Nuclear contribution   :      0.00000       0.00000       2.58338
                        -----------------------------------------
Total Dipole Moment    :     -0.00000       0.00000      -0.12856
                        -----------------------------------------
Magnitude (a.u.)       :      0.12856
Magnitude (Debye)      :      0.32678

Rotational constants in cm-1:     0.000000     2.332054     2.332054
Rotational constants in MHz :     0.000000 69913.219342 69913.219342

                             ****ORCA TERMINATED NORMALLY****
TOTAL RUN TIME: 0 days 0 hours 0 minutes 14 seconds 973 msec
