                         Program Version 5.0.0 -  RELEASE  -
|  1> ! UHF aug-cc-pVQZ pal8 VeryTightSCF UseSym
|  2>
|  3> %scf
|  4> 	STABPerform	True
|  5> 	STABRestartUHFifUnstable	True
|  6> end
|  7>
|  8> *xyz 0 1
|  9>  B	0.0	0.0	0.0
| 10>  H	2.6	0.0	0.0
| 11> **                         ****END OF INPUT****

CARTESIAN COORDINATES (ANGSTROEM)
---------------------------------
  B      0.000000    0.000000   -0.221763
  H      0.000000    0.000000    2.378237

 Total Charge           Charge          ....    0
 Multiplicity           Mult            ....    1
 Number of Electrons    NEL             ....    6
 Basis Dimension        Dim             ....  126

ORBITAL ENERGIES
----------------
                 SPIN UP ORBITALS
  NO   OCC          E(Eh)            E(eV)    Irrep
   0   1.0000      -7.703028      -209.6101    1-A1
   1   1.0000      -0.495027       -13.4704    2-A1
   2   1.0000      -0.433842       -11.8054    3-A1
   3   0.0000       0.024065         0.6548    1-B2
   4   0.0000       0.024065         0.6548    1-B1
   5   0.0000       0.036683         0.9982    4-A1
   6   0.0000       0.055184         1.5016    5-A1
   7   0.0000       0.079394         2.1604    2-B2

                 SPIN DOWN ORBITALS
  NO   OCC          E(Eh)            E(eV)    Irrep
   0   1.0000      -7.715830      -209.9584    1-A1
   1   1.0000      -0.551365       -15.0034    2-A1
   2   1.0000      -0.323555        -8.8044    3-A1
   3   0.0000       0.020663         0.5623    1-B2
   4   0.0000       0.020663         0.5623    1-B1
   5   0.0000       0.030110         0.8193    4-A1
   6   0.0000       0.046865         1.2753    5-A1
   7   0.0000       0.073778         2.0076    2-B2

MULLIKEN ATOMIC CHARGES AND SPIN POPULATIONS
--------------------------------------------
   0 B :    0.035993   -0.964539
   1 H :   -0.035993    0.964539
Sum of atomic charges         :    0.0000000

LOEWDIN ATOMIC CHARGES AND SPIN POPULATIONS
-------------------------------------------
   0 B :    0.101845   -0.711266
   1 H :   -0.101845    0.711266

FINAL SINGLE POINT ENERGY       -25.036652162199

DIPOLE MOMENT
-------------
                                X             Y             Z
Electronic contribution:      0.00000      -0.00000      -2.57788
Nuclear contribution   :      0.00000       0.00000       2.39886
                        -----------------------------------------
Total Dipole Moment    :      0.00000      -0.00000      -0.17902
                        -----------------------------------------
Magnitude (a.u.)       :      0.17902
Magnitude (Debye)      :      0.45504

Rotational constants in cm-1:     0.000000     2.704631     2.704631
Rotational constants in MHz :     0.000000 81082.786929 81082.786929

                             ****ORCA TERMINATED NORMALLY****
TOTAL RUN TIME: 0 days 0 hours 0 minutes 15 seconds 21 msec
