 Gaussian 16, Revision A.03,
 Gaussian 16:  ES64L-G16RevA.03 25-Dec-2016

 ---------------------------------------
 #p UHF/aug-cc-pVQZ guess=mix stable=opt
 ---------------------------------------

 ----------------------
 BH UHF at 2.4 Angstrom
 ----------------------
 Symbolic Z-matrix:
 Charge =  0 Multiplicity = 1

                         Standard orientation:
 ---------------------------------------------------------------------
 Center     Atomic      Atomic             Coordinates (Angstroms)
 Number     Number       Type             X           Y           Z
 ---------------------------------------------------------------------
      1          5           0        0.000000    0.000000    0.400000
      2          1           0        0.000000    0.000000   -2.000000
 ---------------------------------------------------------------------

 SCF Done:  E(UHF) =  -25.0062198419     A.U. after   16 cycles
 SCF Done:  E(UHF) =  -25.0396362585     a.u. after   12 cycles

 The electronic state is 1-SG.
 Alpha  occ. eigenvalues --   -7.72325  -0.55426  -0.32682
 Alpha virt. eigenvalues --    0.01943   0.01943   0.03124   0.04729   0.07246
 Alpha virt. eigenvalues --    0.07246   0.08887   0.10940   0.14369   0.14369
 Alpha virt. eigenvalues --    0.14379   0.14379   0.19087   0.26834   0.26834

  Beta  occ. eigenvalues --   -7.71170  -0.50261  -0.42162
  Beta virt. eigenvalues --    0.02269   0.02269   0.03516   0.05509   0.07730
  Beta virt. eigenvalues --    0.07730   0.09050   0.11496   0.14370   0.14370
  Beta virt. eigenvalues --    0.14418   0.14418   0.19019   0.25324   0.25461

 Mulliken charges and spin densities:
               1          2
     1  B    0.059893   0.924446
     2  H   -0.059893  -0.924446
 Sum of Mulliken charges =  -0.00000  -0.00000

 Dipole moment (field-independent basis, Debye):
    X=              0.0000    Y=              0.0000    Z=              0.6079  Tot=              0.6079
 Quadrupole moment (field-independent basis, Debye-Ang):
   XX=             -7.3117   YY=             -7.3117   ZZ=            -11.8470
   XY=              0.0000   XZ=              0.0000   YZ=              0.0000

 Normal termination of Gaussian 16 at Sat May 21 18:53:09 2022.
