                         Program Version 5.0.0 -  RELEASE  -
|  1> ! UHF aug-cc-pVQZ pal8 VeryTightSCF UseSym
|  2>
|  3> %scf
|  4> 	STABPerform	True
|  5> 	STABRestartUHFifUnstable	True
|  6> end
|  7>
|  8> *xyz 0 1
|  9>  B	0.0	0.0	0.0
| 10>  H	3.6	0.0	0.0
| 11> **                         ****END OF INPUT****

CARTESIAN COORDINATES (ANGSTROEM)
---------------------------------
  B      0.000000    0.000000   -0.307057
  H      0.000000    0.000000    3.292943

 Total Charge           Charge          ....    0
 Multiplicity           Mult            ....    1
 Number of Electrons    NEL             ....    6
 Basis Dimension        Dim             ....  126

ORBITAL ENERGIES
----------------
                 SPIN UP ORBITALS
  NO   OCC          E(Eh)            E(eV)    Irrep
   0   1.0000      -7.702960      -209.6082    1-A1
   1   1.0000      -0.546046       -14.8587    2-A1
   2   1.0000      -0.319183        -8.6854    3-A1
   3   0.0000       0.022934         0.6241    4-A1
   4   0.0000       0.023204         0.6314    1-B1
   5   0.0000       0.023204         0.6314    1-B2
   6   0.0000       0.048576         1.3218    5-A1
   7   0.0000       0.076744         2.0883    2-B1

                 SPIN DOWN ORBITALS
  NO   OCC          E(Eh)            E(eV)    Irrep
   0   1.0000      -7.688025      -209.2018    1-A1
   1   1.0000      -0.492343       -13.3973    2-A1
   2   1.0000      -0.446718       -12.1558    3-A1
   3   0.0000       0.026775         0.7286    1-B1
   4   0.0000       0.026775         0.7286    1-B2
   5   0.0000       0.041789         1.1372    4-A1
   6   0.0000       0.054088         1.4718    5-A1
   7   0.0000       0.080405         2.1879    6-A1

MULLIKEN ATOMIC CHARGES AND SPIN POPULATIONS
--------------------------------------------
   0 B :    0.003254    0.999677
   1 H :   -0.003254   -0.999677
Sum of atomic charges         :    0.0000000

LOEWDIN ATOMIC CHARGES AND SPIN POPULATIONS
-------------------------------------------
   0 B :   -0.009559    0.922576
   1 H :    0.009559   -0.922576

FINAL SINGLE POINT ENERGY       -25.033158879193

DIPOLE MOMENT
-------------
                                X             Y             Z
Electronic contribution:      0.00000      -0.00000      -3.35360
Nuclear contribution   :      0.00000       0.00000       3.32149
                        -----------------------------------------
Total Dipole Moment    :      0.00000      -0.00000      -0.03211
                        -----------------------------------------
Magnitude (a.u.)       :      0.03211
Magnitude (Debye)      :      0.08162

Rotational constants in cm-1:     0.000000     1.410749     1.410749
Rotational constants in MHz :     0.000000 42293.182071 42293.182071

                             ****ORCA TERMINATED NORMALLY****
TOTAL RUN TIME: 0 days 0 hours 0 minutes 14 seconds 108 msec
