                         Program Version 5.0.0 -  RELEASE  -
|  1> ! UHF aug-cc-pVQZ pal8 VeryTightSCF UseSym
|  2>
|  3> %scf
|  4> 	STABPerform	True
|  5> 	STABRestartUHFifUnstable	True
|  6> end
|  7>
|  8> *xyz 0 1
|  9>  B	0.0	0.0	0.0
| 10>  H	3.2	0.0	0.0
| 11> **                         ****END OF INPUT****

CARTESIAN COORDINATES (ANGSTROEM)
---------------------------------
  B      0.000000    0.000000   -0.272940
  H      0.000000    0.000000    2.927060

 Total Charge           Charge          ....    0
 Multiplicity           Mult            ....    1
 Number of Electrons    NEL             ....    6
 Basis Dimension        Dim             ....  126

ORBITAL ENERGIES
----------------
                 SPIN UP ORBITALS
  NO   OCC          E(Eh)            E(eV)    Irrep
   0   1.0000      -7.690629      -209.2727    1-A1
   1   1.0000      -0.490399       -13.3444    2-A1
   2   1.0000      -0.446094       -12.1388    3-A1
   3   0.0000       0.026204         0.7131    1-B2
   4   0.0000       0.026204         0.7131    1-B1
   5   0.0000       0.040253         1.0953    4-A1
   6   0.0000       0.054847         1.4925    5-A1
   7   0.0000       0.082838         2.2541    2-B2

                 SPIN DOWN ORBITALS
  NO   OCC          E(Eh)            E(eV)    Irrep
   0   1.0000      -7.705200      -209.6692    1-A1
   1   1.0000      -0.547022       -14.8852    2-A1
   2   1.0000      -0.319788        -8.7019    3-A1
   3   0.0000       0.022690         0.6174    1-B1
   4   0.0000       0.022690         0.6174    1-B2
   5   0.0000       0.025510         0.6942    4-A1
   6   0.0000       0.047630         1.2961    5-A1
   7   0.0000       0.076111         2.0711    2-B2

MULLIKEN ATOMIC CHARGES AND SPIN POPULATIONS
--------------------------------------------
   0 B :    0.008008   -0.996919
   1 H :   -0.008008    0.996919
Sum of atomic charges         :    0.0000000

LOEWDIN ATOMIC CHARGES AND SPIN POPULATIONS
-------------------------------------------
   0 B :    0.010069   -0.864675
   1 H :   -0.010069    0.864675

FINAL SINGLE POINT ENERGY       -25.033602953211

DIPOLE MOMENT
-------------
                                X             Y             Z
Electronic contribution:     -0.00000      -0.00000      -3.01616
Nuclear contribution   :      0.00000       0.00000       2.95244
                        -----------------------------------------
Total Dipole Moment    :     -0.00000      -0.00000      -0.06373
                        -----------------------------------------
Magnitude (a.u.)       :      0.06373
Magnitude (Debye)      :      0.16198

Rotational constants in cm-1:     0.000000     1.785479     1.785479
Rotational constants in MHz :     0.000000 53527.308559 53527.308559

                             ****ORCA TERMINATED NORMALLY****
TOTAL RUN TIME: 0 days 0 hours 0 minutes 13 seconds 703 msec
