                         Program Version 5.0.0 -  RELEASE  -
|  1> ! UHF aug-cc-pVQZ pal8 VeryTightSCF UseSym
|  2>
|  3> %scf
|  4> 	STABPerform	True
|  5> 	STABRestartUHFifUnstable	True
|  6> end
|  7>
|  8> *xyz 0 1
|  9>  B	0.0	0.0	0.0
| 10>  H	3.8	0.0	0.0
| 11> **                         ****END OF INPUT****

CARTESIAN COORDINATES (ANGSTROEM)
---------------------------------
  B      0.000000    0.000000   -0.324116
  H      0.000000    0.000000    3.475884

 Total Charge           Charge          ....    0
 Multiplicity           Mult            ....    1
 Number of Electrons    NEL             ....    6
 Basis Dimension        Dim             ....  126

ORBITAL ENERGIES
----------------
                 SPIN UP ORBITALS
  NO   OCC          E(Eh)            E(eV)    Irrep
   0   1.0000      -7.687393      -209.1846    1-A1
   1   1.0000      -0.493337       -13.4244    2-A1
   2   1.0000      -0.446667       -12.1544    3-A1
   3   0.0000       0.026946         0.7332    1-B2
   4   0.0000       0.026946         0.7332    1-B1
   5   0.0000       0.042367         1.1529    4-A1
   6   0.0000       0.053606         1.4587    5-A1
   7   0.0000       0.079150         2.1538    6-A1

                 SPIN DOWN ORBITALS
  NO   OCC          E(Eh)            E(eV)    Irrep
   0   1.0000      -7.702413      -209.5933    1-A1
   1   1.0000      -0.545796       -14.8519    2-A1
   2   1.0000      -0.319047        -8.6817    3-A1
   3   0.0000       0.021883         0.5955    4-A1
   4   0.0000       0.023345         0.6352    1-B1
   5   0.0000       0.023345         0.6352    1-B2
   6   0.0000       0.049030         1.3342    5-A1
   7   0.0000       0.076922         2.0932    2-B1

MULLIKEN ATOMIC CHARGES AND SPIN POPULATIONS
--------------------------------------------
   0 B :    0.002017   -1.000233
   1 H :   -0.002017    1.000233
Sum of atomic charges         :   -0.0000000

LOEWDIN ATOMIC CHARGES AND SPIN POPULATIONS
-------------------------------------------
   0 B :   -0.012481   -0.942203
   1 H :    0.012481    0.942203

FINAL SINGLE POINT ENERGY       -25.033066378137

DIPOLE MOMENT
-------------
                                X             Y             Z
Electronic contribution:      0.00000      -0.00000      -3.52927
Nuclear contribution   :      0.00000       0.00000       3.50602
                        -----------------------------------------
Total Dipole Moment    :      0.00000      -0.00000      -0.02325
                        -----------------------------------------
Magnitude (a.u.)       :      0.02325
Magnitude (Debye)      :      0.05910

Rotational constants in cm-1:     0.000000     1.266157     1.266157
Rotational constants in MHz :     0.000000 37958.423798 37958.423798

                             ****ORCA TERMINATED NORMALLY****
TOTAL RUN TIME: 0 days 0 hours 0 minutes 13 seconds 631 msec
