                         Program Version 5.0.0 -  RELEASE  -
|  1> ! UHF aug-cc-pVQZ pal8 VeryTightSCF UseSym
|  2>
|  3> %scf
|  4> 	STABPerform	True
|  5> 	STABRestartUHFifUnstable	True
|  6> end
|  7>
|  8> *xyz 0 1
|  9>  B	0.0	0.0	0.0
| 10>  H	3.4	0.0	0.0
| 11> **                         ****END OF INPUT****

CARTESIAN COORDINATES (ANGSTROEM)
---------------------------------
  B      0.000000    0.000000   -0.289998
  H      0.000000    0.000000    3.110002

 Total Charge           Charge          ....    0
 Multiplicity           Mult            ....    1
 Number of Electrons    NEL             ....    6
 Basis Dimension        Dim             ....  126

ORBITAL ENERGIES
----------------
                 SPIN UP ORBITALS
  NO   OCC          E(Eh)            E(eV)    Irrep
   0   1.0000      -7.703827      -209.6318    1-A1
   1   1.0000      -0.546430       -14.8691    2-A1
   2   1.0000      -0.319407        -8.6915    3-A1
   3   0.0000       0.022996         0.6258    1-B1
   4   0.0000       0.022996         0.6258    1-B2
   5   0.0000       0.024141         0.6569    4-A1
   6   0.0000       0.048103         1.3089    5-A1
   7   0.0000       0.076486         2.0813    2-B1

                 SPIN DOWN ORBITALS
  NO   OCC          E(Eh)            E(eV)    Irrep
   0   1.0000      -7.689031      -209.2292    1-A1
   1   1.0000      -0.491299       -13.3689    2-A1
   2   1.0000      -0.446617       -12.1531    3-A1
   3   0.0000       0.026538         0.7221    1-B2
   4   0.0000       0.026538         0.7221    1-B1
   5   0.0000       0.041092         1.1182    4-A1
   6   0.0000       0.054511         1.4833    5-A1
   7   0.0000       0.081791         2.2257    6-A1

MULLIKEN ATOMIC CHARGES AND SPIN POPULATIONS
--------------------------------------------
   0 B :    0.005123    0.998693
   1 H :   -0.005123   -0.998693
Sum of atomic charges         :   -0.0000000

LOEWDIN ATOMIC CHARGES AND SPIN POPULATIONS
-------------------------------------------
   0 B :   -0.002667    0.897134
   1 H :    0.002667   -0.897134

FINAL SINGLE POINT ENERGY       -25.033319690897

DIPOLE MOMENT
-------------
                                X             Y             Z
Electronic contribution:      0.00000      -0.00000      -3.18196
Nuclear contribution   :      0.00000       0.00000       3.13696
                        -----------------------------------------
Total Dipole Moment    :      0.00000      -0.00000      -0.04500
                        -----------------------------------------
Magnitude (a.u.)       :      0.04500
Magnitude (Debye)      :      0.11437

Rotational constants in cm-1:     0.000000     1.581601     1.581601
Rotational constants in MHz :     0.000000 47415.193741 47415.193741

                             ****ORCA TERMINATED NORMALLY****
TOTAL RUN TIME: 0 days 0 hours 0 minutes 14 seconds 55 msec
