                         Program Version 5.0.0 -  RELEASE  -
|  1> ! UHF aug-cc-pVQZ pal8 VeryTightSCF UseSym
|  2>
|  3> %scf
|  4> 	STABPerform	True
|  5> 	STABRestartUHFifUnstable	True
|  6> end
|  7>
|  8> *xyz 0 1
|  9>  B	0.0	0.0	0.0
| 10>  H	4.0	0.0	0.0
| 11> **                         ****END OF INPUT****

CARTESIAN COORDINATES (ANGSTROEM)
---------------------------------
  B      0.000000    0.000000   -0.341174
  H      0.000000    0.000000    3.658826

 Total Charge           Charge          ....    0
 Multiplicity           Mult            ....    1
 Number of Electrons    NEL             ....    6
 Basis Dimension        Dim             ....  126

ORBITAL ENERGIES
----------------
                 SPIN UP ORBITALS
  NO   OCC          E(Eh)            E(eV)    Irrep
   0   1.0000      -7.702068      -209.5839    1-A1
   1   1.0000      -0.545632       -14.8474    2-A1
   2   1.0000      -0.318962        -8.6794    3-A1
   3   0.0000       0.020972         0.5707    4-A1
   4   0.0000       0.023441         0.6379    1-B1
   5   0.0000       0.023441         0.6379    1-B2
   6   0.0000       0.049460         1.3459    5-A1
   7   0.0000       0.077046         2.0965    2-B1

                 SPIN DOWN ORBITALS
  NO   OCC          E(Eh)            E(eV)    Irrep
   0   1.0000      -7.686997      -209.1738    1-A1
   1   1.0000      -0.494217       -13.4483    2-A1
   2   1.0000      -0.446577       -12.1520    3-A1
   3   0.0000       0.027071         0.7366    1-B1
   4   0.0000       0.027071         0.7366    1-B2
   5   0.0000       0.042836         1.1656    4-A1
   6   0.0000       0.053091         1.4447    5-A1
   7   0.0000       0.078028         2.1232    6-A1

MULLIKEN ATOMIC CHARGES AND SPIN POPULATIONS
--------------------------------------------
   0 B :    0.001213    1.000494
   1 H :   -0.001213   -1.000494
Sum of atomic charges         :   -0.0000000

LOEWDIN ATOMIC CHARGES AND SPIN POPULATIONS
-------------------------------------------
   0 B :   -0.012932    0.957130
   1 H :    0.012932   -0.957130

FINAL SINGLE POINT ENERGY       -25.033012507640

DIPOLE MOMENT
-------------
                                X             Y             Z
Electronic contribution:      0.00000       0.00000      -3.70766
Nuclear contribution   :      0.00000       0.00000       3.69055
                        -----------------------------------------
Total Dipole Moment    :      0.00000       0.00000      -0.01712
                        -----------------------------------------
Magnitude (a.u.)       :      0.01712
Magnitude (Debye)      :      0.04350

Rotational constants in cm-1:     0.000000     1.142706     1.142706
Rotational constants in MHz :     0.000000 34257.477478 34257.477478

                             ****ORCA TERMINATED NORMALLY****
TOTAL RUN TIME: 0 days 0 hours 0 minutes 12 seconds 279 msec
