                         Program Version 5.0.0 -  RELEASE  -
|  1> ! UHF aug-cc-pVQZ pal8 VeryTightSCF UseSym
|  2>
|  3> %scf
|  4> 	STABPerform	True
|  5> 	STABRestartUHFifUnstable	True
|  6> end
|  7>
|  8> *xyz 0 1
|  9>  B	0.0	0.0	0.0
| 10>  H	4.4	0.0	0.0
| 11> **                         ****END OF INPUT****

CARTESIAN COORDINATES (ANGSTROEM)
---------------------------------
  B      0.000000    0.000000   -0.375292
  H      0.000000    0.000000    4.024708

 Total Charge           Charge          ....    0
 Multiplicity           Mult            ....    1
 Number of Electrons    NEL             ....    6
 Basis Dimension        Dim             ....  126

ORBITAL ENERGIES
----------------
                 SPIN UP ORBITALS
  NO   OCC          E(Eh)            E(eV)    Irrep
   0   1.0000      -7.686591      -209.1628    1-A1
   1   1.0000      -0.495609       -13.4862    2-A1
   2   1.0000      -0.446422       -12.1478    3-A1
   3   0.0000       0.027236         0.7411    1-B1
   4   0.0000       0.027236         0.7411    1-B2
   5   0.0000       0.043452         1.1824    4-A1
   6   0.0000       0.052063         1.4167    5-A1
   7   0.0000       0.076160         2.0724    6-A1

                 SPIN DOWN ORBITALS
  NO   OCC          E(Eh)            E(eV)    Irrep
   0   1.0000      -7.701712      -209.5742    1-A1
   1   1.0000      -0.545452       -14.8425    2-A1
   2   1.0000      -0.318868        -8.6768    3-A1
   3   0.0000       0.019492         0.5304    4-A1
   4   0.0000       0.023555         0.6410    1-B1
   5   0.0000       0.023555         0.6410    1-B2
   6   0.0000       0.050234         1.3669    5-A1
   7   0.0000       0.075399         2.0517    6-A1

MULLIKEN ATOMIC CHARGES AND SPIN POPULATIONS
--------------------------------------------
   0 B :    0.000431   -1.000507
   1 H :   -0.000431    1.000507
Sum of atomic charges         :   -0.0000000

LOEWDIN ATOMIC CHARGES AND SPIN POPULATIONS
-------------------------------------------
   0 B :   -0.010435   -0.976703
   1 H :    0.010435    0.976703

FINAL SINGLE POINT ENERGY       -25.032962396919

DIPOLE MOMENT
-------------
                                X             Y             Z
Electronic contribution:     -0.00000      -0.00000      -4.06943
Nuclear contribution   :      0.00000       0.00000       4.05960
                        -----------------------------------------
Total Dipole Moment    :     -0.00000      -0.00000      -0.00982
                        -----------------------------------------
Magnitude (a.u.)       :      0.00982
Magnitude (Debye)      :      0.02497

Rotational constants in cm-1:     0.000000     0.944385     0.944385
Rotational constants in MHz :     0.000000 28311.964858 28311.964858

                             ****ORCA TERMINATED NORMALLY****
TOTAL RUN TIME: 0 days 0 hours 0 minutes 11 seconds 977 msec
