 Gaussian 16, Revision A.03,
 Gaussian 16:  ES64L-G16RevA.03 25-Dec-2016

 ---------------------------------------
 #p UHF/aug-cc-pVQZ guess=mix stable=opt
 ---------------------------------------

 ----------------------
 BH UHF at 5.0 Angstrom
 ----------------------
 Symbolic Z-matrix:
 Charge =  0 Multiplicity = 1

                         Standard orientation:
 ---------------------------------------------------------------------
 Center     Atomic      Atomic             Coordinates (Angstroms)
 Number     Number       Type             X           Y           Z
 ---------------------------------------------------------------------
      1          5           0        0.000000    0.000000    0.833333
      2          1           0        0.000000    0.000000   -4.166667
 ---------------------------------------------------------------------

 SCF Done:  E(UHF) =  -25.0329401821     A.U. after   17 cycles

 The electronic state is 1-SG.
 Alpha  occ. eigenvalues --   -7.68638  -0.49698  -0.44630
 Alpha virt. eigenvalues --    0.02737   0.02737   0.04353   0.05098   0.07403
 Alpha virt. eigenvalues --    0.08426   0.08426   0.11787   0.14262   0.14262
 Alpha virt. eigenvalues --    0.14572   0.14572   0.16045   0.19370   0.19370

  Beta  occ. eigenvalues --   -7.70152  -0.54535  -0.31881
  Beta virt. eigenvalues --    0.01790   0.02363   0.02363   0.05121   0.07185
  Beta virt. eigenvalues --    0.07729   0.07729   0.11026   0.14251   0.14251
  Beta virt. eigenvalues --    0.14564   0.14564   0.16406   0.20884   0.20884

 Mulliken charges and spin densities:
               1          2
     1  B    0.000176  -1.000169
     2  H   -0.000176   1.000169
 Sum of Mulliken charges =  -0.00000  -0.00000

 Dipole moment (field-independent basis, Debye):
    X=              0.0000    Y=              0.0000    Z=              0.0127  Tot=              0.0127
 Quadrupole moment (field-independent basis, Debye-Ang):
   XX=             -7.3058   YY=             -7.3058   ZZ=            -10.7449
   XY=             -0.0000   XZ=              0.0000   YZ=              0.0000

 Normal termination of Gaussian 16 at Sat May 21 19:01:51 2022.
