                         Program Version 5.0.0 -  RELEASE  -
|  1> ! UHF aug-cc-pVQZ pal8 VeryTightSCF UseSym
|  2>
|  3> %scf
|  4> 	STABPerform	True
|  5> 	STABRestartUHFifUnstable	True
|  6> end
|  7>
|  8> *xyz 0 1
|  9>  B	0.0	0.0	0.0
| 10>  H	5.2	0.0	0.0
| 11> **                         ****END OF INPUT****

CARTESIAN COORDINATES (ANGSTROEM)
---------------------------------
  B      0.000000    0.000000   -0.443527
  H      0.000000    0.000000    4.756473

 Total Charge           Charge          ....    0
 Multiplicity           Mult            ....    1
 Number of Electrons    NEL             ....    6
 Basis Dimension        Dim             ....  126

ORBITAL ENERGIES
----------------
                 SPIN UP ORBITALS
  NO   OCC          E(Eh)            E(eV)    Irrep
   0   1.0000      -7.686357      -209.1564    1-A1
   1   1.0000      -0.497313       -13.5326    2-A1
   2   1.0000      -0.446282       -12.1440    3-A1
   3   0.0000       0.027391         0.7454    1-B1
   4   0.0000       0.027391         0.7454    1-B2
   5   0.0000       0.043337         1.1793    4-A1
   6   0.0000       0.050805         1.3825    5-A1
   7   0.0000       0.073433         1.9982    6-A1

                 SPIN DOWN ORBITALS
  NO   OCC          E(Eh)            E(eV)    Irrep
   0   1.0000      -7.701502      -209.5685    1-A1
   1   1.0000      -0.545330       -14.8392    2-A1
   2   1.0000      -0.318796        -8.6749    3-A1
   3   0.0000       0.017499         0.4762    4-A1
   4   0.0000       0.023641         0.6433    1-B1
   5   0.0000       0.023641         0.6433    1-B2
   6   0.0000       0.051493         1.4012    5-A1
   7   0.0000       0.070664         1.9229    6-A1

MULLIKEN ATOMIC CHARGES AND SPIN POPULATIONS
--------------------------------------------
   0 B :    0.000154   -1.000078
   1 H :   -0.000154    1.000078
Sum of atomic charges         :   -0.0000000

LOEWDIN ATOMIC CHARGES AND SPIN POPULATIONS
-------------------------------------------
   0 B :   -0.004268   -0.993264
   1 H :    0.004268    0.993264

FINAL SINGLE POINT ENERGY       -25.032937559187

DIPOLE MOMENT
-------------
                                X             Y             Z
Electronic contribution:      0.00000      -0.00000      -4.80184
Nuclear contribution   :      0.00000       0.00000       4.79771
                        -----------------------------------------
Total Dipole Moment    :      0.00000      -0.00000      -0.00413
                        -----------------------------------------
Magnitude (a.u.)       :      0.00413
Magnitude (Debye)      :      0.01051

Rotational constants in cm-1:     0.000000     0.676158     0.676158
Rotational constants in MHz :     0.000000 20270.696732 20270.696732

                             ****ORCA TERMINATED NORMALLY****
TOTAL RUN TIME: 0 days 0 hours 0 minutes 10 seconds 442 msec
