                         Program Version 5.0.0 -  RELEASE  -
|  1> ! UHF aug-cc-pVQZ pal8 VeryTightSCF UseSym
|  2>
|  3> %scf
|  4> 	STABPerform	True
|  5> 	STABRestartUHFifUnstable	True
|  6> end
|  7>
|  8> *xyz 0 1
|  9>  B	0.0	0.0	0.0
| 10>  H	5.0	0.0	0.0
| 11> **                         ****END OF INPUT****

CARTESIAN COORDINATES (ANGSTROEM)
---------------------------------
  B      0.000000    0.000000   -0.426468
  H      0.000000    0.000000    4.573532

 Total Charge           Charge          ....    0
 Multiplicity           Mult            ....    1
 Number of Electrons    NEL             ....    6
 Basis Dimension        Dim             ....  126

ORBITAL ENERGIES
----------------
                 SPIN UP ORBITALS
  NO   OCC          E(Eh)            E(eV)    Irrep
   0   1.0000      -7.701527      -209.5692    1-A1
   1   1.0000      -0.545346       -14.8396    2-A1
   2   1.0000      -0.318808        -8.6752    3-A1
   3   0.0000       0.017904         0.4872    4-A1
   4   0.0000       0.023629         0.6430    1-B1
   5   0.0000       0.023629         0.6430    1-B2
   6   0.0000       0.051206         1.3934    5-A1
   7   0.0000       0.071853         1.9552    6-A1

                 SPIN DOWN ORBITALS
  NO   OCC          E(Eh)            E(eV)    Irrep
   0   1.0000      -7.686385      -209.1572    1-A1
   1   1.0000      -0.496985       -13.5236    2-A1
   2   1.0000      -0.446302       -12.1445    3-A1
   3   0.0000       0.027366         0.7447    1-B1
   4   0.0000       0.027366         0.7447    1-B2
   5   0.0000       0.043526         1.1844    4-A1
   6   0.0000       0.050975         1.3871    5-A1
   7   0.0000       0.074030         2.0145    6-A1

MULLIKEN ATOMIC CHARGES AND SPIN POPULATIONS
--------------------------------------------
   0 B :    0.000176    1.000169
   1 H :   -0.000176   -1.000169
Sum of atomic charges         :   -0.0000000

LOEWDIN ATOMIC CHARGES AND SPIN POPULATIONS
-------------------------------------------
   0 B :   -0.005510    0.990799
   1 H :    0.005510   -0.990799

FINAL SINGLE POINT ENERGY       -25.032940367550

DIPOLE MOMENT
-------------
                                X             Y             Z
Electronic contribution:     -0.00000      -0.00000      -4.61818
Nuclear contribution   :      0.00000       0.00000       4.61318
                        -----------------------------------------
Total Dipole Moment    :     -0.00000      -0.00000      -0.00500
                        -----------------------------------------
Magnitude (a.u.)       :      0.00500
Magnitude (Debye)      :      0.01271

Rotational constants in cm-1:     0.000000     0.731332     0.731332
Rotational constants in MHz :     0.000000 21924.785586 21924.785586

                             ****ORCA TERMINATED NORMALLY****
TOTAL RUN TIME: 0 days 0 hours 0 minutes 11 seconds 37 msec
