 Gaussian 16, Revision A.03,
 Gaussian 16:  ES64L-G16RevA.03 25-Dec-2016

 ------------------------
 #p RHF/cc-pVDZ sym=loose
 ------------------------

 ------
 C60 SP
 ------
 Symbolic Z-matrix:
 Charge =  0 Multiplicity = 1

                         Standard orientation:
 ---------------------------------------------------------------------
 Center     Atomic      Atomic             Coordinates (Angstroms)
 Number     Number       Type             X           Y           Z
 ---------------------------------------------------------------------
      1          6           0        0.770009   -1.059826    3.408513
      2          6           0       -0.770009   -1.059826    3.408513
      3          6           0       -1.447603   -1.992454    2.696048
      4          6           0       -0.677594   -3.052280    1.886413
      5          6           0        0.677594   -3.052280    1.886413
      6          6           0        1.447603   -1.992454    2.696048
      7          6           0        1.245900    0.404818    3.408513
      8          6           0        0.000000    1.310017    3.408513
      9          6           0       -1.245900    0.404818    3.408513
     10          6           0       -2.342270    0.761050    2.696048
     11          6           0       -2.693503   -1.587637    1.886413
     12          6           0       -1.447603   -3.302471    0.576396
     13          6           0       -0.770009   -3.522635   -0.576396
     14          6           0        0.770009   -3.522635   -0.576396
     15          6           0        1.447603   -3.302471    0.576396
     16          6           0        2.693503   -2.397272    0.576396
     17          6           0        2.693503   -1.587637    1.886413
     18          6           0        3.112279   -0.298776    1.886413
     19          6           0        2.342270    0.761050    2.696048
     20          6           0        0.000000    2.462809    2.696048
     21          6           0        1.245900    2.867626    1.886413
     22          6           0        2.342270    2.071067    1.886413
     23          6           0        3.112279    1.820876    0.576396
     24          6           0        3.588171    0.356232    0.576396
     25          6           0        3.588171   -0.356232   -0.576396
     26          6           0        3.112279   -1.820876   -0.576396
     27          6           0        2.342270   -2.071067   -1.886413
     28          6           0        1.245900   -2.867626   -1.886413
     29          6           0       -2.693503   -2.397272    0.576396
     30          6           0       -1.245900   -0.404818   -3.408513
     31          6           0       -2.342270   -0.761050   -2.696048
     32          6           0       -3.112279    0.298776   -1.886413
     33          6           0       -2.693503    1.587637   -1.886413
     34          6           0       -1.447603    1.992454   -2.696048
     35          6           0        0.770009    1.059826   -3.408513
     36          6           0        1.245900   -0.404818   -3.408513
     37          6           0        0.000000   -1.310017   -3.408513
     38          6           0       -0.000000   -2.462809   -2.696048
     39          6           0       -1.245900   -2.867626   -1.886413
     40          6           0       -2.342270   -2.071067   -1.886413
     41          6           0       -3.588171   -0.356232   -0.576396
     42          6           0       -3.588171    0.356232    0.576396
     43          6           0       -3.112279    1.820876    0.576396
     44          6           0       -2.693503    2.397272   -0.576396
     45          6           0       -1.447603    3.302471   -0.576396
     46          6           0       -0.677594    3.052280   -1.886413
     47          6           0        0.677594    3.052280   -1.886413
     48          6           0        1.447603    1.992454   -2.696048
     49          6           0        2.342270   -0.761050   -2.696048
     50          6           0        3.112279    0.298776   -1.886413
     51          6           0        2.693503    1.587637   -1.886413
     52          6           0        2.693503    2.397272   -0.576396
     53          6           0        1.447603    3.302471   -0.576396
     54          6           0        0.770009    3.522635    0.576396
     55          6           0       -0.770009    3.522635    0.576396
     56          6           0       -1.245900    2.867626    1.886413
     57          6           0       -2.342270    2.071067    1.886413
     58          6           0       -3.112279   -1.820876   -0.576396
     59          6           0       -3.112279   -0.298776    1.886413
     60          6           0       -0.770009    1.059826   -3.408513
 ---------------------------------------------------------------------

 SCF Done:  E(RHF) =  -2271.68589626     A.U. after   14 cycles

 The electronic state is 1-AG.
 Alpha  occ. eigenvalues --  -11.31103 -11.31094 -11.31094 -11.31094 -11.31079
 Alpha  occ. eigenvalues --  -11.31079 -11.31079 -11.31079 -11.31079 -11.31064
 Alpha  occ. eigenvalues --  -11.31064 -11.31064 -11.31064 -11.31049 -11.31049
 Alpha  occ. eigenvalues --  -11.31049 -11.31042 -11.31042 -11.31042 -11.31042
 Alpha  occ. eigenvalues --  -11.31033 -11.31033 -11.31033 -11.31033 -11.31033
 Alpha  occ. eigenvalues --  -11.31028 -11.31028 -11.31028 -11.31028 -11.31028
 Alpha  occ. eigenvalues --  -11.30930 -11.30930 -11.30930 -11.30921 -11.30921
 Alpha  occ. eigenvalues --  -11.30921 -11.30914 -11.30914 -11.30914 -11.30914
 Alpha  occ. eigenvalues --  -11.30914 -11.30910 -11.30910 -11.30910 -11.30895
 Alpha  occ. eigenvalues --  -11.30895 -11.30895 -11.30895 -11.30895 -11.30879
 Alpha  occ. eigenvalues --  -11.30879 -11.30879 -11.30879 -11.30854 -11.30854
 Alpha  occ. eigenvalues --  -11.30854 -11.30854 -11.30852 -11.30852 -11.30852
 Alpha  occ. eigenvalues --   -1.26677  -1.24330  -1.24330  -1.24330  -1.19751
 Alpha  occ. eigenvalues --   -1.19751  -1.19751  -1.19751  -1.19751  -1.13191
 Alpha  occ. eigenvalues --   -1.13191  -1.13191  -1.13191  -1.13171  -1.13171
 Alpha  occ. eigenvalues --   -1.13171  -1.05398  -1.05398  -1.05398  -1.05398
 Alpha  occ. eigenvalues --   -1.04956  -1.04956  -1.04956  -1.04956  -1.04956
 Alpha  occ. eigenvalues --   -0.99201  -0.99201  -0.99201  -0.99201  -0.99201
 Alpha  occ. eigenvalues --   -0.91551  -0.91551  -0.91551  -0.88525  -0.88525
 Alpha  occ. eigenvalues --   -0.88525  -0.86269  -0.86269  -0.86269  -0.86269
 Alpha  occ. eigenvalues --   -0.86269  -0.82465  -0.82465  -0.82465  -0.77328
 Alpha  occ. eigenvalues --   -0.73167  -0.73167  -0.73167  -0.73167  -0.72715
 Alpha  occ. eigenvalues --   -0.72715  -0.72715  -0.72715  -0.72715  -0.68943
 Alpha  occ. eigenvalues --   -0.68943  -0.68943  -0.67309  -0.67309  -0.67309
 Alpha  occ. eigenvalues --   -0.63144  -0.61748  -0.61748  -0.61748  -0.61748
 Alpha  occ. eigenvalues --   -0.61631  -0.61631  -0.61631  -0.61631  -0.61615
 Alpha  occ. eigenvalues --   -0.61615  -0.61615  -0.61615  -0.61615  -0.60196
 Alpha  occ. eigenvalues --   -0.60196  -0.60196  -0.57093  -0.57093  -0.57093
 Alpha  occ. eigenvalues --   -0.57093  -0.55791  -0.55791  -0.55791  -0.54518
 Alpha  occ. eigenvalues --   -0.54518  -0.54518  -0.54518  -0.54518  -0.49264
 Alpha  occ. eigenvalues --   -0.49264  -0.49264  -0.49264  -0.49264  -0.47851
 Alpha  occ. eigenvalues --   -0.47851  -0.47851  -0.47851  -0.47851  -0.46713
 Alpha  occ. eigenvalues --   -0.46713  -0.46713  -0.46713  -0.45448  -0.45448
 Alpha  occ. eigenvalues --   -0.45448  -0.37684  -0.37684  -0.37684  -0.37684
 Alpha  occ. eigenvalues --   -0.35462  -0.35462  -0.35462  -0.35462  -0.35462
 Alpha  occ. eigenvalues --   -0.30991  -0.30991  -0.30991  -0.30991  -0.30991
 Alpha virt. eigenvalues --    0.00093   0.00093   0.00093   0.06028   0.06028
 Alpha virt. eigenvalues --    0.06028   0.06885   0.06885   0.06885   0.06885
 Alpha virt. eigenvalues --    0.06885   0.06973   0.06973   0.06973   0.16922

 Mulliken charges:
               1
     1  C   -0.000000
     2  C   -0.000000
     3  C   -0.000000
     4  C   -0.000000
     5  C   -0.000000
     6  C   -0.000000
     7  C   -0.000000
     8  C   -0.000000
     9  C   -0.000000
    10  C   -0.000000
    11  C   -0.000000
    12  C   -0.000000
    13  C   -0.000000
    14  C   -0.000000
    15  C   -0.000000
    16  C   -0.000000
    17  C   -0.000000
    18  C   -0.000000
    19  C   -0.000000
    20  C   -0.000000
    21  C   -0.000000
    22  C   -0.000000
    23  C   -0.000000
    24  C   -0.000000
    25  C   -0.000000
    26  C   -0.000000
    27  C   -0.000000
    28  C   -0.000000
    29  C   -0.000000
    30  C   -0.000000
    31  C   -0.000000
    32  C   -0.000000
    33  C   -0.000000
    34  C   -0.000000
    35  C   -0.000000
    36  C   -0.000000
    37  C   -0.000000
    38  C   -0.000000
    39  C   -0.000000
    40  C   -0.000000
    41  C   -0.000000
    42  C   -0.000000
    43  C   -0.000000
    44  C   -0.000000
    45  C   -0.000000
    46  C   -0.000000
    47  C   -0.000000
    48  C   -0.000000
    49  C   -0.000000
    50  C   -0.000000
    51  C   -0.000000
    52  C   -0.000000
    53  C   -0.000000
    54  C   -0.000000
    55  C   -0.000000
    56  C   -0.000000
    57  C   -0.000000
    58  C   -0.000000
    59  C   -0.000000
    60  C   -0.000000
 Sum of Mulliken charges =  -0.00000

 Dipole moment (field-independent basis, Debye):
    X=             -0.0000    Y=             -0.0000    Z=              0.0000  Tot=              0.0000
 Quadrupole moment (field-independent basis, Debye-Ang):
   XX=           -346.2399   YY=           -346.2399   ZZ=           -346.2399
   XY=              0.0000   XZ=              0.0000   YZ=             -0.0000

 Normal termination of Gaussian 16 at Thu May  5 10:45:32 2022.
