 Gaussian 16, Revision A.03,
 Gaussian 16:  ES64L-G16RevA.03 25-Dec-2016

 ---------------------
 #p RHF/cc-pVDZ nosymm
 ---------------------

 ------
 C60 SP
 ------
 Symbolic Z-matrix:
 Charge =  0 Multiplicity = 1

                          Input orientation:
 ---------------------------------------------------------------------
 Center     Atomic      Atomic             Coordinates (Angstroms)
 Number     Number       Type             X           Y           Z
 ---------------------------------------------------------------------
      1          6           0        0.178234   -0.421643    0.095651
      2          6           0        1.718235   -0.421599    0.095573
      3          6           0        2.395811    0.752053    0.095517
      4          6           0        1.625779    2.085711    0.095540
      5          6           0        0.270573    2.085675    0.095603
      6          6           0       -0.499390    0.751976    0.095660
      7          6           0       -0.297641   -1.585543   -0.793440
      8          6           0        0.948245   -2.304824   -1.342987
      9          6           0        2.194118   -1.585470   -0.793546
     10          6           0        3.290472   -1.436029   -1.576003
     11          6           0        3.641677    0.921872   -0.793633
     12          6           0        2.395733    3.079796   -0.793599
     13          6           0        1.718072    3.954550   -1.576011
     14          6           0        0.178073    3.954503   -1.575949
     15          6           0       -0.499483    3.079715   -0.793500
     16          6           0       -1.745366    2.360366   -1.342961
     17          6           0       -1.745302    0.921744   -0.793433
     18          6           0       -2.164072   -0.102481   -1.575838
     19          6           0       -1.394044   -1.436144   -1.575842
     20          6           0        0.948218   -2.788408   -2.608975
     21          6           0       -0.297709   -2.618640   -3.498062
     22          6           0       -1.394085   -1.985666   -3.014465
     23          6           0       -2.164149   -0.991631   -3.903570
     24          6           0       -2.640028    0.172242   -3.014449
     25          6           0       -2.640093    1.438231   -3.498035
     26          6           0       -2.164205    2.602126   -2.608940
     27          6           0       -1.394253    3.596191   -3.498089
     28          6           0       -0.297871    4.229219   -3.014568
     29          6           0        3.641625    2.360496   -1.343144
     30          6           0        2.193821    3.196185   -5.719274
     31          6           0        3.290222    3.046788   -4.936877
     32          6           0        4.060256    1.713129   -4.936877
     33          6           0        3.641489    0.688899   -5.719279
     34          6           0        2.395563    0.858664   -6.608366
     35          6           0        0.177942    2.032241   -6.608299
     36          6           0       -0.297938    3.196116   -5.719178
     37          6           0        0.947944    3.915470   -5.169732
     38          6           0        0.947981    4.399044   -3.903743
     39          6           0        2.193896    4.229288   -3.014664
     40          6           0        3.290265    3.596308   -3.498266
     41          6           0        4.536219    1.438397   -3.498269
     42          6           0        4.536284    0.172408   -3.014694
     43          6           0        4.060404   -0.991484   -3.903784
     44          6           0        3.641560   -0.749722   -5.169767
     45          6           0        2.395665   -1.469073   -5.719224
     46          6           0        1.625597   -0.475041   -6.608329
     47          6           0        0.270395   -0.475074   -6.608277
     48          6           0       -0.499630    0.858585   -6.608259
     49          6           0       -1.394291    3.046673   -4.936716
     50          6           0       -2.164262    1.712974   -4.936674
     51          6           0       -1.745484    0.688763   -5.719097
     52          6           0       -1.745426   -0.749858   -5.169573
     53          6           0       -0.499549   -1.469147   -5.719120
     54          6           0        0.178106   -2.343894   -4.936704
     55          6           0        1.718110   -2.343860   -4.936759
     56          6           0        2.194064   -2.618585   -3.498136
     57          6           0        3.290444   -1.985560   -3.014620
     58          6           0        4.060339    2.602271   -2.609151
     59          6           0        4.060453   -0.102337   -1.576057
     60          6           0        1.717936    2.032284   -6.608357
 ---------------------------------------------------------------------

 SCF Done:  E(RHF) =  -2271.68599316     A.U. after   18 cycles

 Alpha  occ. eigenvalues --  -11.31103 -11.31094 -11.31094 -11.31094 -11.31079
 Alpha  occ. eigenvalues --  -11.31079 -11.31079 -11.31079 -11.31079 -11.31064
 Alpha  occ. eigenvalues --  -11.31064 -11.31064 -11.31064 -11.31049 -11.31049
 Alpha  occ. eigenvalues --  -11.31049 -11.31042 -11.31042 -11.31042 -11.31042
 Alpha  occ. eigenvalues --  -11.31032 -11.31032 -11.31032 -11.31032 -11.31032
 Alpha  occ. eigenvalues --  -11.31028 -11.31028 -11.31028 -11.31028 -11.31028
 Alpha  occ. eigenvalues --  -11.30930 -11.30930 -11.30930 -11.30921 -11.30921
 Alpha  occ. eigenvalues --  -11.30921 -11.30914 -11.30914 -11.30914 -11.30914
 Alpha  occ. eigenvalues --  -11.30914 -11.30910 -11.30910 -11.30910 -11.30895
 Alpha  occ. eigenvalues --  -11.30895 -11.30895 -11.30895 -11.30895 -11.30879
 Alpha  occ. eigenvalues --  -11.30879 -11.30879 -11.30879 -11.30854 -11.30854
 Alpha  occ. eigenvalues --  -11.30854 -11.30854 -11.30852 -11.30852 -11.30852
 Alpha  occ. eigenvalues --   -1.26678  -1.24331  -1.24330  -1.24330  -1.19751
 Alpha  occ. eigenvalues --   -1.19751  -1.19751  -1.19751  -1.19751  -1.13191
 Alpha  occ. eigenvalues --   -1.13191  -1.13191  -1.13191  -1.13172  -1.13171
 Alpha  occ. eigenvalues --   -1.13171  -1.05398  -1.05398  -1.05398  -1.05398
 Alpha  occ. eigenvalues --   -1.04957  -1.04957  -1.04957  -1.04956  -1.04956
 Alpha  occ. eigenvalues --   -0.99200  -0.99200  -0.99200  -0.99200  -0.99200
 Alpha  occ. eigenvalues --   -0.91552  -0.91551  -0.91551  -0.88525  -0.88525
 Alpha  occ. eigenvalues --   -0.88525  -0.86269  -0.86269  -0.86269  -0.86269
 Alpha  occ. eigenvalues --   -0.86269  -0.82466  -0.82466  -0.82466  -0.77328
 Alpha  occ. eigenvalues --   -0.73168  -0.73168  -0.73167  -0.73167  -0.72715
 Alpha  occ. eigenvalues --   -0.72715  -0.72715  -0.72715  -0.72715  -0.68943
 Alpha  occ. eigenvalues --   -0.68943  -0.68943  -0.67309  -0.67309  -0.67309
 Alpha  occ. eigenvalues --   -0.63144  -0.61748  -0.61748  -0.61748  -0.61748
 Alpha  occ. eigenvalues --   -0.61631  -0.61631  -0.61630  -0.61630  -0.61615
 Alpha  occ. eigenvalues --   -0.61615  -0.61615  -0.61615  -0.61615  -0.60197
 Alpha  occ. eigenvalues --   -0.60197  -0.60196  -0.57093  -0.57093  -0.57093
 Alpha  occ. eigenvalues --   -0.57093  -0.55791  -0.55791  -0.55791  -0.54518
 Alpha  occ. eigenvalues --   -0.54518  -0.54518  -0.54518  -0.54518  -0.49265
 Alpha  occ. eigenvalues --   -0.49265  -0.49265  -0.49265  -0.49264  -0.47852
 Alpha  occ. eigenvalues --   -0.47852  -0.47852  -0.47851  -0.47851  -0.46713
 Alpha  occ. eigenvalues --   -0.46713  -0.46713  -0.46713  -0.45448  -0.45448
 Alpha  occ. eigenvalues --   -0.45448  -0.37683  -0.37683  -0.37683  -0.37683
 Alpha  occ. eigenvalues --   -0.35462  -0.35462  -0.35462  -0.35462  -0.35462
 Alpha  occ. eigenvalues --   -0.30990  -0.30990  -0.30990  -0.30990  -0.30990
 Alpha virt. eigenvalues --    0.00092   0.00093   0.00093   0.06028   0.06028
 Alpha virt. eigenvalues --    0.06028   0.06885   0.06885   0.06885   0.06885
 Alpha virt. eigenvalues --    0.06885   0.06973   0.06973   0.06973   0.16921

 Mulliken charges:
               1
     1  C    0.000000
     2  C   -0.000004
     3  C    0.000002
     4  C    0.000005
     5  C   -0.000007
     6  C    0.000004
     7  C   -0.000007
     8  C    0.000004
     9  C    0.000006
    10  C   -0.000002
    11  C    0.000004
    12  C   -0.000003
    13  C   -0.000004
    14  C    0.000002
    15  C    0.000004
    16  C    0.000001
    17  C   -0.000005
    18  C    0.000005
    19  C    0.000005
    20  C   -0.000005
    21  C    0.000000
    22  C   -0.000002
    23  C    0.000004
    24  C    0.000002
    25  C   -0.000006
    26  C   -0.000001
    27  C   -0.000001
    28  C   -0.000003
    29  C   -0.000006
    30  C   -0.000007
    31  C    0.000013
    32  C   -0.000000
    33  C   -0.000001
    34  C   -0.000004
    35  C    0.000001
    36  C   -0.000000
    37  C    0.000001
    38  C   -0.000000
    39  C    0.000003
    40  C   -0.000002
    41  C    0.000004
    42  C   -0.000000
    43  C   -0.000006
    44  C    0.000001
    45  C   -0.000003
    46  C   -0.000001
    47  C    0.000002
    48  C   -0.000000
    49  C   -0.000002
    50  C   -0.000001
    51  C    0.000001
    52  C    0.000001
    53  C   -0.000001
    54  C    0.000006
    55  C   -0.000006
    56  C    0.000006
    57  C   -0.000004
    58  C    0.000005
    59  C   -0.000001
    60  C    0.000002
 Sum of Mulliken charges =  -0.00000

 Dipole moment (field-independent basis, Debye):
    X=              0.0000    Y=             -0.0000    Z=              0.0000  Tot=              0.0000
 Quadrupole moment (field-independent basis, Debye-Ang):
   XX=           -346.2394   YY=           -346.2395   ZZ=           -346.2396
   XY=              0.0003   XZ=              0.0000   YZ=             -0.0000

 Normal termination of Gaussian 16 at Thu May  5 10:17:25 2022.
