                         Program Version 5.0.0 -  RELEASE  -
|  1> ! UKS B3LYP def2-TZVP NoRI VeryTightSCF
|  2>
|  3> %pal
|  4>     nprocs  16
|  5> end
|  6>
|  7> %scf
|  8>     MaxIter         500
|  9> end
| 10>
| 11> *xyz +1 12
| 12>  C		41.75403		53.28594		36.47089
| 13>  N		42.78753		53.11575		35.57581
| 14>  H		43.16994		53.82901		34.93449
| 15>  C		43.13114		51.81325		35.56784
| 16>  H		43.90950		51.37773		34.94414
| 17>  N		42.37607		51.13571		36.42691
| 18>  C		41.50665		52.03904		37.00144
| 19>  H		40.82544		51.73164		37.79505
| 20>  C		40.09202		47.27196		33.79593
| 21>  N		40.01563		48.58847		33.38565
| 22>  H		39.43866		49.00474		32.64677
| 23>  C		40.81932		49.32188		34.18498
| 24>  H		40.95055		50.39694		34.07925
| 25>  N		41.40562		48.54888		35.08628
| 26>  C		40.96397		47.26826		34.85989
| 27>  H		41.28483		46.44894		35.49587
| 28>  C		38.24865		48.45183		37.81335
| 29>  H		38.06635		49.38048		37.25970
| 30>  H		37.98920		48.64643		38.86583
| 31>  C		39.73354		48.12878		37.79602
| 32>  O		40.09424		46.93213		38.07281
| 33>  O		40.52803		49.07737		37.61504
| 34>  C		38.64939		43.85153		40.73232
| 35>  N		39.75318		43.46223		41.46909
| 36>  H		39.79405		42.88321		42.31374
| 37>  C		40.85619		43.95040		40.87085
| 38>  H		41.86208		43.73437		41.21668
| 39>  N		40.53337		44.65182		39.79100
| 40>  C		39.15956		44.58428		39.68656
| 41>  H		38.64310		45.07085		38.86947
| 42>  C		42.78301		43.20389		35.50791
| 43>  N		41.70402		42.56435		36.07633
| 44>  H		41.38662		41.60923		35.87328
| 45>  C		41.22751		43.34662		37.06020
| 46>  H		40.41347		43.06024		37.71905
| 47>  N		41.93585		44.46949		37.14463
| 48>  C		42.92016		44.39135		36.18173
| 49>  H		43.65411		45.17925		36.03284
| 50>  C		45.76587		48.09327		34.01347
| 51>  H		45.12996		47.64758		33.22625
| 52>  H		46.66030		47.46138		34.10695
| 53>  C		44.95577		48.01686		35.29973
| 54>  O		44.14613		48.94934		35.56215
| 55>  O		45.08740		46.97457		36.01411
| 56>  Fe		42.54033		49.05049		36.87039
| 57>  Fe		41.81627		46.03465		38.62397
| 58>  O		42.83867		47.18229		37.39246
| 59>  H		43.73492		46.94286		37.02348
| 60>  C		43.49167		47.06037		40.65787
| 61>  C		43.62987		47.67506		42.05581
| 62>  C		45.10300		47.59033		42.50474
| 63>  C		45.62301		46.15243		42.46240
| 64>  C		45.40189		45.47910		41.08480
| 65>  C		43.92995		45.59891		40.70191
| 66>  O		42.19103		47.12374		40.15874
| 67>  O		42.77905		47.01209		42.97498
| 68>  O		45.28716		48.11554		43.80319
| 69>  O		46.99767		46.17794		42.81101
| 70>  O		45.74511		44.11656		41.09014
| 71>  O		43.60430		45.05282		39.42323
| 72>  H		44.17197		47.60667		39.96927
| 73>  H		43.37341		48.74685		41.99147
| 74>  H		45.70505		48.16527		41.77049
| 75>  H		45.03923		45.57203		43.19495
| 76>  H		46.01899		46.03720		40.34589
| 77>  H		43.33990		45.09204		41.48188
| 78>  H		42.10859		47.68790		43.28977
| 79>  H		45.23130		49.11516		43.72228
| 80>  H		47.38229		45.25422		42.73309
| 81>  H		46.61333		43.98248		41.55557
| 82>  H		43.51869		44.03919		39.45235
| 83>  O		42.87964		49.71258		38.89705
| 84>  O		44.05578		49.61518		38.40447
| 85>  H		41.30382		54.25088		36.70388
| 86>  H		39.55092		46.42585		33.37239
| 87>  H		37.60102		47.66437		37.42791
| 88>  H		37.60539		43.64548		40.96829
| 89>  H		43.42804		42.77098		34.74333
| 90>  H		46.04434		49.08634		33.66087
| 91> *
| 92>
| 93>
| 94>                          ****END OF INPUT****

CARTESIAN COORDINATES (ANGSTROEM)
---------------------------------
  C     41.754030   53.285940   36.470890
  N     42.787530   53.115750   35.575810
  H     43.169940   53.829010   34.934490
  C     43.131140   51.813250   35.567840
  H     43.909500   51.377730   34.944140
  N     42.376070   51.135710   36.426910
  C     41.506650   52.039040   37.001440
  H     40.825440   51.731640   37.795050
  C     40.092020   47.271960   33.795930
  N     40.015630   48.588470   33.385650
  H     39.438660   49.004740   32.646770
  C     40.819320   49.321880   34.184980
  H     40.950550   50.396940   34.079250
  N     41.405620   48.548880   35.086280
  C     40.963970   47.268260   34.859890
  H     41.284830   46.448940   35.495870
  C     38.248650   48.451830   37.813350
  H     38.066350   49.380480   37.259700
  H     37.989200   48.646430   38.865830
  C     39.733540   48.128780   37.796020
  O     40.094240   46.932130   38.072810
  O     40.528030   49.077370   37.615040
  C     38.649390   43.851530   40.732320
  N     39.753180   43.462230   41.469090
  H     39.794050   42.883210   42.313740
  C     40.856190   43.950400   40.870850
  H     41.862080   43.734370   41.216680
  N     40.533370   44.651820   39.791000
  C     39.159560   44.584280   39.686560
  H     38.643100   45.070850   38.869470
  C     42.783010   43.203890   35.507910
  N     41.704020   42.564350   36.076330
  H     41.386620   41.609230   35.873280
  C     41.227510   43.346620   37.060200
  H     40.413470   43.060240   37.719050
  N     41.935850   44.469490   37.144630
  C     42.920160   44.391350   36.181730
  H     43.654110   45.179250   36.032840
  C     45.765870   48.093270   34.013470
  H     45.129960   47.647580   33.226250
  H     46.660300   47.461380   34.106950
  C     44.955770   48.016860   35.299730
  O     44.146130   48.949340   35.562150
  O     45.087400   46.974570   36.014110
  Fe    42.540330   49.050490   36.870390
  Fe    41.816270   46.034650   38.623970
  O     42.838670   47.182290   37.392460
  H     43.734920   46.942860   37.023480
  C     43.491670   47.060370   40.657870
  C     43.629870   47.675060   42.055810
  C     45.103000   47.590330   42.504740
  C     45.623010   46.152430   42.462400
  C     45.401890   45.479100   41.084800
  C     43.929950   45.598910   40.701910
  O     42.191030   47.123740   40.158740
  O     42.779050   47.012090   42.974980
  O     45.287160   48.115540   43.803190
  O     46.997670   46.177940   42.811010
  O     45.745110   44.116560   41.090140
  O     43.604300   45.052820   39.423230
  H     44.171970   47.606670   39.969270
  H     43.373410   48.746850   41.991470
  H     45.705050   48.165270   41.770490
  H     45.039230   45.572030   43.194950
  H     46.018990   46.037200   40.345890
  H     43.339900   45.092040   41.481880
  H     42.108590   47.687900   43.289770
  H     45.231300   49.115160   43.722280
  H     47.382290   45.254220   42.733090
  H     46.613330   43.982480   41.555570
  H     43.518690   44.039190   39.452350
  O     42.879640   49.712580   38.897050
  O     44.055780   49.615180   38.404470
  H     41.303820   54.250880   36.703880
  H     39.550920   46.425850   33.372390
  H     37.601020   47.664370   37.427910
  H     37.605390   43.645480   40.968290
  H     43.428040   42.770980   34.743330
  H     46.044340   49.086340   33.660870

 Total Charge           Charge          ....    1
 Multiplicity           Mult            ....   12
 Number of Electrons    NEL             ....  377
 Basis Dimension        Dim             .... 1627

ORBITAL ENERGIES
----------------
                 SPIN UP ORBITALS
  NO   OCC          E(Eh)            E(eV)
   0   1.0000    -256.240942     -6972.6705
   1   1.0000    -256.198273     -6971.5094
   2   1.0000     -30.235533      -822.7507
   3   1.0000     -30.185842      -821.3985
   4   1.0000     -26.091400      -709.9831
   5   1.0000     -26.087231      -709.8696
   6   1.0000     -26.084115      -709.7848
   7   1.0000     -26.046693      -708.7665
   8   1.0000     -26.035290      -708.4563
   9   1.0000     -26.034276      -708.4287
  10   1.0000     -19.279107      -524.6112
  11   1.0000     -19.278093      -524.5836
  12   1.0000     -19.259722      -524.0837
  13   1.0000     -19.214634      -522.8568
  14   1.0000     -19.198064      -522.4059
  15   1.0000     -19.192646      -522.2585
  16   1.0000     -19.192388      -522.2514
  17   1.0000     -19.185050      -522.0518
  18   1.0000     -19.181815      -521.9637
  19   1.0000     -19.166180      -521.5383
  20   1.0000     -19.161790      -521.4188
  21   1.0000     -19.157533      -521.3030
  22   1.0000     -19.135185      -520.6948
  23   1.0000     -14.492375      -394.3576
  24   1.0000     -14.491752      -394.3406
  25   1.0000     -14.477103      -393.9420
  26   1.0000     -14.475303      -393.8930
  27   1.0000     -14.434081      -392.7713
  28   1.0000     -14.433809      -392.7639
  29   1.0000     -14.417200      -392.3120
  30   1.0000     -14.410767      -392.1369
  31   1.0000     -10.368198      -282.1330
  32   1.0000     -10.347606      -281.5727
  33   1.0000     -10.346326      -281.5378
  34   1.0000     -10.330477      -281.1066
  35   1.0000     -10.328526      -281.0535
  36   1.0000     -10.327271      -281.0193
  37   1.0000     -10.314357      -280.6679
  38   1.0000     -10.307691      -280.4865
  39   1.0000     -10.306739      -280.4606
  40   1.0000     -10.298581      -280.2386
  41   1.0000     -10.297996      -280.2227
  42   1.0000     -10.297829      -280.2182
  43   1.0000     -10.297142      -280.1995
  44   1.0000     -10.290492      -280.0185
  45   1.0000     -10.289418      -279.9893
  46   1.0000     -10.285743      -279.8893
  47   1.0000     -10.285364      -279.8790
  48   1.0000     -10.284197      -279.8472
  49   1.0000     -10.281813      -279.7824
  50   1.0000     -10.278747      -279.6989
  51   1.0000     -10.245435      -278.7925
  52   1.0000     -10.218851      -278.0691
  53   1.0000      -3.721684      -101.2722
  54   1.0000      -3.674126       -99.9780
  55   1.0000      -2.503980       -68.1368
  56   1.0000      -2.494861       -67.8886
  57   1.0000      -2.488934       -67.7273
  58   1.0000      -2.466334       -67.1123
  59   1.0000      -2.441883       -66.4470
  60   1.0000      -2.439425       -66.3801
  61   1.0000      -1.264366       -34.4051
  62   1.0000      -1.145957       -31.1831
  63   1.0000      -1.144384       -31.1403
  64   1.0000      -1.137250       -30.9461
  65   1.0000      -1.136436       -30.9240
  66   1.0000      -1.121084       -30.5062
  67   1.0000      -1.118482       -30.4354
  68   1.0000      -1.112943       -30.2847
  69   1.0000      -1.106811       -30.1179
  70   1.0000      -1.095061       -29.7981
  71   1.0000      -1.082192       -29.4479
  72   1.0000      -1.066810       -29.0294
  73   1.0000      -1.056601       -28.7516
  74   1.0000      -1.042581       -28.3701
  75   1.0000      -1.022531       -27.8245
  76   1.0000      -1.008579       -27.4448
  77   1.0000      -0.995059       -27.0769
  78   1.0000      -0.992446       -27.0058
  79   1.0000      -0.978031       -26.6136
  80   1.0000      -0.975056       -26.5326
  81   1.0000      -0.879505       -23.9326
  82   1.0000      -0.863316       -23.4920
  83   1.0000      -0.862187       -23.4613
  84   1.0000      -0.858379       -23.3577
  85   1.0000      -0.844440       -22.9784
  86   1.0000      -0.843042       -22.9403
  87   1.0000      -0.807569       -21.9751
  88   1.0000      -0.798426       -21.7263
  89   1.0000      -0.781166       -21.2566
  90   1.0000      -0.776874       -21.1398
  91   1.0000      -0.735269       -20.0077
  92   1.0000      -0.733932       -19.9713
  93   1.0000      -0.718211       -19.5435
  94   1.0000      -0.717766       -19.5314
  95   1.0000      -0.708799       -19.2874
  96   1.0000      -0.706219       -19.2172
  97   1.0000      -0.700122       -19.0513
  98   1.0000      -0.693629       -18.8746
  99   1.0000      -0.689441       -18.7607
 100   1.0000      -0.681926       -18.5561
 101   1.0000      -0.675644       -18.3852
 102   1.0000      -0.671027       -18.2596
 103   1.0000      -0.662757       -18.0345
 104   1.0000      -0.658376       -17.9153
 105   1.0000      -0.648071       -17.6349
 106   1.0000      -0.637670       -17.3519
 107   1.0000      -0.620881       -16.8950
 108   1.0000      -0.610132       -16.6025
 109   1.0000      -0.600111       -16.3298
 110   1.0000      -0.593681       -16.1549
 111   1.0000      -0.586089       -15.9483
 112   1.0000      -0.581824       -15.8322
 113   1.0000      -0.573625       -15.6091
 114   1.0000      -0.572317       -15.5735
 115   1.0000      -0.569311       -15.4917
 116   1.0000      -0.567436       -15.4407
 117   1.0000      -0.563014       -15.3204
 118   1.0000      -0.562336       -15.3020
 119   1.0000      -0.558859       -15.2073
 120   1.0000      -0.558406       -15.1950
 121   1.0000      -0.554005       -15.0752
 122   1.0000      -0.552672       -15.0390
 123   1.0000      -0.550571       -14.9818
 124   1.0000      -0.548543       -14.9266
 125   1.0000      -0.544602       -14.8194
 126   1.0000      -0.544160       -14.8073
 127   1.0000      -0.541560       -14.7366
 128   1.0000      -0.540951       -14.7200
 129   1.0000      -0.537858       -14.6359
 130   1.0000      -0.535166       -14.5626
 131   1.0000      -0.534423       -14.5424
 132   1.0000      -0.531852       -14.4724
 133   1.0000      -0.529972       -14.4213
 134   1.0000      -0.529004       -14.3949
 135   1.0000      -0.527707       -14.3596
 136   1.0000      -0.523894       -14.2559
 137   1.0000      -0.520014       -14.1503
 138   1.0000      -0.516200       -14.0465
 139   1.0000      -0.514187       -13.9917
 140   1.0000      -0.511807       -13.9270
 141   1.0000      -0.510211       -13.8835
 142   1.0000      -0.508626       -13.8404
 143   1.0000      -0.506256       -13.7759
 144   1.0000      -0.500879       -13.6296
 145   1.0000      -0.497778       -13.5452
 146   1.0000      -0.496243       -13.5035
 147   1.0000      -0.492966       -13.4143
 148   1.0000      -0.483053       -13.1446
 149   1.0000      -0.477378       -12.9901
 150   1.0000      -0.476303       -12.9609
 151   1.0000      -0.475198       -12.9308
 152   1.0000      -0.474755       -12.9187
 153   1.0000      -0.466268       -12.6878
 154   1.0000      -0.465579       -12.6691
 155   1.0000      -0.461757       -12.5651
 156   1.0000      -0.457443       -12.4477
 157   1.0000      -0.455602       -12.3976
 158   1.0000      -0.448308       -12.1991
 159   1.0000      -0.446751       -12.1567
 160   1.0000      -0.442539       -12.0421
 161   1.0000      -0.435709       -11.8562
 162   1.0000      -0.425443       -11.5769
 163   1.0000      -0.419864       -11.4251
 164   1.0000      -0.418621       -11.3913
 165   1.0000      -0.412585       -11.2270
 166   1.0000      -0.411331       -11.1929
 167   1.0000      -0.409349       -11.1390
 168   1.0000      -0.406728       -11.0676
 169   1.0000      -0.395776       -10.7696
 170   1.0000      -0.394657       -10.7392
 171   1.0000      -0.390259       -10.6195
 172   1.0000      -0.381591       -10.3836
 173   1.0000      -0.379330       -10.3221
 174   1.0000      -0.368662       -10.0318
 175   1.0000      -0.363635        -9.8950
 176   1.0000      -0.361039        -9.8244
 177   1.0000      -0.357019        -9.7150
 178   1.0000      -0.356011        -9.6875
 179   1.0000      -0.353332        -9.6146
 180   1.0000      -0.350489        -9.5373
 181   1.0000      -0.345659        -9.4059
 182   1.0000      -0.343797        -9.3552
 183   1.0000      -0.343036        -9.3345
 184   1.0000      -0.338859        -9.2208
 185   1.0000      -0.336004        -9.1431
 186   1.0000      -0.332949        -9.0600
 187   1.0000      -0.330604        -8.9962
 188   1.0000      -0.328156        -8.9296
 189   1.0000      -0.321685        -8.7535
 190   1.0000      -0.318152        -8.6573
 191   1.0000      -0.311829        -8.4853
 192   1.0000      -0.308687        -8.3998
 193   1.0000      -0.301910        -8.2154
 194   0.0000      -0.107049        -2.9130
 195   0.0000      -0.100284        -2.7289
 196   0.0000      -0.088007        -2.3948
 197   0.0000      -0.082038        -2.2324
 198   0.0000      -0.078713        -2.1419

                 SPIN DOWN ORBITALS
  NO   OCC          E(Eh)            E(eV)
   0   1.0000    -256.239113     -6972.6207
   1   1.0000    -256.196606     -6971.4641
   2   1.0000     -30.143001      -820.2327
   3   1.0000     -30.097158      -818.9853
   4   1.0000     -26.012687      -707.8412
   5   1.0000     -26.010215      -707.7739
   6   1.0000     -26.008779      -707.7348
   7   1.0000     -25.968587      -706.6412
   8   1.0000     -25.963621      -706.5060
   9   1.0000     -25.962746      -706.4822
  10   1.0000     -19.257625      -524.0266
  11   1.0000     -19.254964      -523.9542
  12   1.0000     -19.253854      -523.9240
  13   1.0000     -19.214618      -522.8563
  14   1.0000     -19.198047      -522.4054
  15   1.0000     -19.192641      -522.2583
  16   1.0000     -19.188680      -522.1505
  17   1.0000     -19.185000      -522.0504
  18   1.0000     -19.179178      -521.8920
  19   1.0000     -19.155908      -521.2588
  20   1.0000     -19.154502      -521.2205
  21   1.0000     -19.153347      -521.1891
  22   1.0000     -19.134837      -520.6854
  23   1.0000     -14.492288      -394.3552
  24   1.0000     -14.491661      -394.3381
  25   1.0000     -14.477012      -393.9395
  26   1.0000     -14.475240      -393.8913
  27   1.0000     -14.432243      -392.7213
  28   1.0000     -14.431992      -392.7145
  29   1.0000     -14.415692      -392.2709
  30   1.0000     -14.408716      -392.0811
  31   1.0000     -10.368141      -282.1315
  32   1.0000     -10.347572      -281.5717
  33   1.0000     -10.346202      -281.5345
  34   1.0000     -10.330498      -281.1071
  35   1.0000     -10.328392      -281.0498
  36   1.0000     -10.327237      -281.0184
  37   1.0000     -10.314310      -280.6667
  38   1.0000     -10.307635      -280.4850
  39   1.0000     -10.306537      -280.4551
  40   1.0000     -10.298528      -280.2372
  41   1.0000     -10.297964      -280.2218
  42   1.0000     -10.297748      -280.2160
  43   1.0000     -10.297082      -280.1978
  44   1.0000     -10.290465      -280.0178
  45   1.0000     -10.289410      -279.9891
  46   1.0000     -10.285527      -279.8834
  47   1.0000     -10.285292      -279.8770
  48   1.0000     -10.284137      -279.8456
  49   1.0000     -10.281860      -279.7836
  50   1.0000     -10.278760      -279.6993
  51   1.0000     -10.245169      -278.7852
  52   1.0000     -10.218688      -278.0646
  53   1.0000      -3.504544       -95.3635
  54   1.0000      -3.464833       -94.2829
  55   1.0000      -2.270423       -61.7814
  56   1.0000      -2.266168       -61.6656
  57   1.0000      -2.264621       -61.6235
  58   1.0000      -2.229955       -60.6802
  59   1.0000      -2.229516       -60.6682
  60   1.0000      -2.226439       -60.5845
  61   1.0000      -1.217238       -33.1227
  62   1.0000      -1.142345       -31.0848
  63   1.0000      -1.139280       -31.0014
  64   1.0000      -1.136278       -30.9197
  65   1.0000      -1.135603       -30.9013
  66   1.0000      -1.120244       -30.4834
  67   1.0000      -1.117602       -30.4115
  68   1.0000      -1.112543       -30.2738
  69   1.0000      -1.103333       -30.0232
  70   1.0000      -1.094651       -29.7870
  71   1.0000      -1.081856       -29.4388
  72   1.0000      -1.066441       -29.0193
  73   1.0000      -1.049740       -28.5649
  74   1.0000      -1.023691       -27.8561
  75   1.0000      -1.011234       -27.5171
  76   1.0000      -0.998349       -27.1665
  77   1.0000      -0.992749       -27.0141
  78   1.0000      -0.990306       -26.9476
  79   1.0000      -0.976370       -26.5684
  80   1.0000      -0.973224       -26.4828
  81   1.0000      -0.877437       -23.8763
  82   1.0000      -0.861833       -23.4517
  83   1.0000      -0.857950       -23.3460
  84   1.0000      -0.844048       -22.9677
  85   1.0000      -0.842662       -22.9300
  86   1.0000      -0.806120       -21.9356
  87   1.0000      -0.797730       -21.7073
  88   1.0000      -0.794187       -21.6109
  89   1.0000      -0.778390       -21.1811
  90   1.0000      -0.775929       -21.1141
  91   1.0000      -0.734006       -19.9733
  92   1.0000      -0.732521       -19.9329
  93   1.0000      -0.716867       -19.5069
  94   1.0000      -0.716482       -19.4965
  95   1.0000      -0.707825       -19.2609
  96   1.0000      -0.705200       -19.1895
  97   1.0000      -0.699215       -19.0266
  98   1.0000      -0.692572       -18.8459
  99   1.0000      -0.688405       -18.7325
 100   1.0000      -0.681299       -18.5391
 101   1.0000      -0.675124       -18.3711
 102   1.0000      -0.667711       -18.1693
 103   1.0000      -0.662182       -18.0189
 104   1.0000      -0.657785       -17.8992
 105   1.0000      -0.646637       -17.5959
 106   1.0000      -0.626423       -17.0458
 107   1.0000      -0.619121       -16.8471
 108   1.0000      -0.608308       -16.5529
 109   1.0000      -0.592091       -16.1116
 110   1.0000      -0.589253       -16.0344
 111   1.0000      -0.580334       -15.7917
 112   1.0000      -0.572358       -15.5747
 113   1.0000      -0.563385       -15.3305
 114   1.0000      -0.561040       -15.2667
 115   1.0000      -0.557460       -15.1693
 116   1.0000      -0.555705       -15.1215
 117   1.0000      -0.553351       -15.0574
 118   1.0000      -0.551462       -15.0060
 119   1.0000      -0.550325       -14.9751
 120   1.0000      -0.547342       -14.8939
 121   1.0000      -0.546385       -14.8679
 122   1.0000      -0.543621       -14.7927
 123   1.0000      -0.543312       -14.7843
 124   1.0000      -0.540428       -14.7058
 125   1.0000      -0.538434       -14.6515
 126   1.0000      -0.533189       -14.5088
 127   1.0000      -0.532524       -14.4907
 128   1.0000      -0.530353       -14.4316
 129   1.0000      -0.526591       -14.3293
 130   1.0000      -0.526095       -14.3158
 131   1.0000      -0.523415       -14.2428
 132   1.0000      -0.518881       -14.1195
 133   1.0000      -0.515383       -14.0243
 134   1.0000      -0.511760       -13.9257
 135   1.0000      -0.509798       -13.8723
 136   1.0000      -0.509008       -13.8508
 137   1.0000      -0.503982       -13.7141
 138   1.0000      -0.501428       -13.6445
 139   1.0000      -0.495595       -13.4858
 140   1.0000      -0.493281       -13.4229
 141   1.0000      -0.490748       -13.3539
 142   1.0000      -0.482649       -13.1335
 143   1.0000      -0.480136       -13.0652
 144   1.0000      -0.474682       -12.9168
 145   1.0000      -0.469832       -12.7848
 146   1.0000      -0.464846       -12.6491
 147   1.0000      -0.456789       -12.4299
 148   1.0000      -0.455337       -12.3904
 149   1.0000      -0.452276       -12.3071
 150   1.0000      -0.446795       -12.1579
 151   1.0000      -0.444581       -12.0977
 152   1.0000      -0.442004       -12.0275
 153   1.0000      -0.439697       -11.9648
 154   1.0000      -0.427280       -11.6269
 155   1.0000      -0.423853       -11.5336
 156   1.0000      -0.417330       -11.3561
 157   1.0000      -0.416582       -11.3358
 158   1.0000      -0.410655       -11.1745
 159   1.0000      -0.409486       -11.1427
 160   1.0000      -0.405516       -11.0346
 161   1.0000      -0.402429       -10.9507
 162   1.0000      -0.394033       -10.7222
 163   1.0000      -0.393344       -10.7034
 164   1.0000      -0.381324       -10.3763
 165   1.0000      -0.378223       -10.2920
 166   1.0000      -0.371216       -10.1013
 167   1.0000      -0.367637       -10.0039
 168   1.0000      -0.361802        -9.8451
 169   1.0000      -0.357108        -9.7174
 170   1.0000      -0.355434        -9.6718
 171   1.0000      -0.350564        -9.5393
 172   1.0000      -0.347355        -9.4520
 173   1.0000      -0.345091        -9.3904
 174   1.0000      -0.338356        -9.2071
 175   1.0000      -0.338018        -9.1979
 176   1.0000      -0.336351        -9.1526
 177   1.0000      -0.331567        -9.0224
 178   1.0000      -0.329441        -8.9646
 179   1.0000      -0.320620        -8.7245
 180   1.0000      -0.310855        -8.4588
 181   1.0000      -0.307865        -8.3774
 182   1.0000      -0.284855        -7.7513
 183   0.0000      -0.186289        -5.0692
 184   0.0000      -0.183871        -5.0034
 185   0.0000      -0.179496        -4.8843
 186   0.0000      -0.163085        -4.4378
 187   0.0000      -0.153205        -4.1689

MULLIKEN ATOMIC CHARGES AND SPIN POPULATIONS
--------------------------------------------
   0 C :   -0.035848    0.004982
   1 N :   -0.219282    0.002658
   2 H :    0.256187    0.001160
   3 C :    0.051983    0.006957
   4 H :    0.194558    0.000062
   5 N :   -0.138202    0.037200
   6 C :   -0.087813    0.002186
   7 H :    0.161799    0.000903
   8 C :   -0.069144    0.003062
   9 N :   -0.228861    0.001338
  10 H :    0.248803    0.001485
  11 C :    0.060403    0.000479
  12 H :    0.171001    0.000815
  13 N :   -0.092713    0.043950
  14 C :   -0.093862   -0.001693
  15 H :    0.186430    0.001682
  16 C :   -0.367311    0.012032
  17 H :    0.128553    0.001079
  18 H :    0.138758   -0.000685
  19 C :    0.495832    0.006802
  20 O :   -0.515558    0.089957
  21 O :   -0.438095    0.059624
  22 C :   -0.033540    0.001856
  23 N :   -0.231348    0.002812
  24 H :    0.257697    0.000982
  25 C :    0.092731    0.001811
  26 H :    0.157947    0.000380
  27 N :   -0.180308    0.038996
  28 C :   -0.098709    0.001350
  29 H :    0.167024    0.000177
  30 C :   -0.035569    0.002697
  31 N :   -0.228312    0.002724
  32 H :    0.255111    0.001271
  33 C :    0.064744    0.006233
  34 H :    0.190540    0.000307
  35 N :   -0.191142    0.040092
  36 C :   -0.127283    0.001370
  37 H :    0.219972    0.000010
  38 C :   -0.349066    0.007379
  39 H :    0.108505   -0.000174
  40 H :    0.134018    0.000866
  41 C :    0.415264   -0.000727
  42 O :   -0.467406    0.073218
  43 O :   -0.536358    0.010728
  44 Fe:    0.783712    4.084379
  45 Fe:    0.794935    4.236009
  46 O :   -0.862067    0.242558
  47 H :    0.361616    0.004323
  48 C :    0.235259   -0.003697
  49 C :    0.007716    0.011134
  50 C :    0.107979    0.002146
  51 C :    0.052740    0.000524
  52 C :    0.035315    0.002133
  53 C :    0.076908    0.009715
  54 O :   -0.524711    0.336495
  55 O :   -0.464485    0.000380
  56 O :   -0.423052    0.001427
  57 O :   -0.395109    0.000472
  58 O :   -0.445283    0.000423
  59 O :   -0.449620    0.038833
  60 H :    0.104411    0.009018
  61 H :    0.097246   -0.000200
  62 H :    0.079694   -0.000170
  63 H :    0.074199    0.000030
  64 H :    0.088386   -0.000029
  65 H :    0.076971    0.000421
  66 H :    0.318558    0.000008
  67 H :    0.304715   -0.000051
  68 H :    0.272219   -0.000008
  69 H :    0.285319    0.000013
  70 H :    0.342242    0.002500
  71 O :   -0.114650    0.768524
  72 O :   -0.120208    0.778534
  73 H :    0.167693    0.000533
  74 H :    0.156846    0.000754
  75 H :    0.119024    0.001502
  76 H :    0.174424    0.000560
  77 H :    0.176630    0.000563
  78 H :    0.112298   -0.000152
Sum of atomic charges         :    1.0000000

LOEWDIN ATOMIC CHARGES AND SPIN POPULATIONS
-------------------------------------------
   0 C :   -0.215055    0.003853
   1 N :    0.194794    0.002984
   2 H :    0.211979    0.000602
   3 C :   -0.247482    0.007811
   4 H :    0.150007    0.000148
   5 N :    0.149697    0.042585
   6 C :   -0.207956    0.004560
   7 H :    0.149090    0.000485
   8 C :   -0.220778    0.002479
   9 N :    0.192488    0.001375
  10 H :    0.206258    0.000760
  11 C :   -0.256476    0.003301
  12 H :    0.140985    0.000216
  13 N :    0.167021    0.055140
  14 C :   -0.209993    0.002108
  15 H :    0.150155    0.000154
  16 C :   -0.259254    0.008544
  17 H :    0.130884    0.000822
  18 H :    0.144330   -0.000236
  19 C :   -0.518452    0.016929
  20 O :    0.077931    0.097668
  21 O :    0.119999    0.066602
  22 C :   -0.205745    0.001741
  23 N :    0.201701    0.002389
  24 H :    0.210911    0.000554
  25 C :   -0.258062    0.003898
  26 H :    0.137881    0.000170
  27 N :    0.145582    0.048020
  28 C :   -0.220569    0.003304
  29 H :    0.145286    0.000276
  30 C :   -0.208682    0.002437
  31 N :    0.199768    0.002888
  32 H :    0.210427    0.000720
  33 C :   -0.263241    0.007408
  34 H :    0.143923    0.000104
  35 N :    0.136013    0.050310
  36 C :   -0.208026    0.003604
  37 H :    0.153745    0.000331
  38 C :   -0.273833    0.004958
  39 H :    0.135128   -0.000040
  40 H :    0.132149    0.000633
  41 C :   -0.571018    0.006266
  42 O :    0.070812    0.077867
  43 O :   -0.046654    0.009258
  44 Fe:    0.167627    4.032472
  45 Fe:    0.292597    4.179905
  46 O :   -0.228801    0.251632
  47 H :    0.156273    0.008939
  48 C :   -0.342707    0.023342
  49 C :   -0.315502    0.008319
  50 C :   -0.320523    0.001492
  51 C :   -0.310904    0.000363
  52 C :   -0.324061    0.002228
  53 C :   -0.286420    0.008317
  54 O :   -0.008218    0.317393
  55 O :   -0.014051    0.000439
  56 O :   -0.001712    0.001401
  57 O :    0.000249    0.000470
  58 O :   -0.010983    0.000522
  59 O :    0.099989    0.051611
  60 H :    0.156657    0.005827
  61 H :    0.143130    0.000094
  62 H :    0.147595    0.000017
  63 H :    0.144445    0.000017
  64 H :    0.147674   -0.000008
  65 H :    0.145158    0.000139
  66 H :    0.204065    0.000078
  67 H :    0.199069    0.000010
  68 H :    0.179187    0.000008
  69 H :    0.181450    0.000044
  70 H :    0.223076    0.002655
  71 O :   -0.025057    0.772681
  72 O :   -0.037675    0.781092
  73 H :    0.144059    0.000327
  74 H :    0.141490    0.000393
  75 H :    0.122744    0.000991
  76 H :    0.147378    0.000337
  77 H :    0.147760    0.000350
  78 H :    0.117275    0.000116

  Mayer bond orders larger than 0.100000
B(  0-C ,  1-N ) :   1.1452 B(  0-C ,  6-C ) :   1.6316 B(  0-C , 73-H ) :   0.9409
B(  1-N ,  2-H ) :   0.9055 B(  1-N ,  3-C ) :   1.2829 B(  3-C ,  4-H ) :   0.9372
B(  3-C ,  5-N ) :   1.4590 B(  5-N ,  6-C ) :   1.2076 B(  5-N , 44-Fe) :   0.5390
B(  6-C ,  7-H ) :   0.9627 B(  8-C ,  9-N ) :   1.1566 B(  8-C , 14-C ) :   1.6302
B(  8-C , 74-H ) :   0.9465 B(  9-N , 10-H ) :   0.9095 B(  9-N , 11-C ) :   1.2807
B( 11-C , 12-H ) :   0.9458 B( 11-C , 13-N ) :   1.4977 B( 13-N , 14-C ) :   1.2270
B( 13-N , 44-Fe) :   0.4121 B( 14-C , 15-H ) :   0.9496 B( 16-C , 17-H ) :   0.9834
B( 16-C , 18-H ) :   0.9515 B( 16-C , 19-C ) :   0.9450 B( 16-C , 75-H ) :   0.9708
B( 19-C , 20-O ) :   1.3857 B( 19-C , 21-O ) :   1.5881 B( 20-O , 45-Fe) :   0.5057
B( 21-O , 44-Fe) :   0.3303 B( 22-C , 23-N ) :   1.1451 B( 22-C , 28-C ) :   1.6347
B( 22-C , 76-H ) :   0.9418 B( 23-N , 24-H ) :   0.9055 B( 23-N , 25-C ) :   1.3102
B( 25-C , 26-H ) :   0.9378 B( 25-C , 27-N ) :   1.4527 B( 27-N , 28-C ) :   1.2171
B( 27-N , 45-Fe) :   0.4214 B( 28-C , 29-H ) :   0.9600 B( 30-C , 31-N ) :   1.1508
B( 30-C , 36-C ) :   1.6524 B( 30-C , 77-H ) :   0.9358 B( 31-N , 32-H ) :   0.9064
B( 31-N , 33-C ) :   1.3019 B( 33-C , 34-H ) :   0.9410 B( 33-C , 35-N ) :   1.4574
B( 35-N , 36-C ) :   1.1834 B( 35-N , 45-Fe) :   0.4687 B( 36-C , 37-H ) :   0.9161
B( 38-C , 39-H ) :   0.9469 B( 38-C , 40-H ) :   0.9811 B( 38-C , 41-C ) :   0.9656
B( 38-C , 78-H ) :   0.9705 B( 41-C , 42-O ) :   1.4663 B( 41-C , 43-O ) :   1.6191
B( 42-O , 44-Fe) :   0.4424 B( 43-O , 47-H ) :   0.1679 B( 44-Fe, 46-O ) :   0.3934
B( 44-Fe, 71-O ) :   0.4683 B( 44-Fe, 72-O ) :   0.4178 B( 45-Fe, 46-O ) :   0.4964
B( 45-Fe, 54-O ) :   0.9361 B( 45-Fe, 59-O ) :   0.2677 B( 46-O , 47-H ) :   0.7490
B( 48-C , 49-C ) :   0.8527 B( 48-C , 53-C ) :   0.9359 B( 48-C , 54-O ) :   0.8738
B( 48-C , 55-O ) :  -0.1413 B( 48-C , 60-H ) :   0.9553 B( 49-C , 50-C ) :   0.9028
B( 49-C , 55-O ) :   1.2098 B( 49-C , 61-H ) :   0.9654 B( 50-C , 51-C ) :   0.9287
B( 50-C , 56-O ) :   1.0824 B( 50-C , 62-H ) :   0.9670 B( 51-C , 52-C ) :   0.9553
B( 51-C , 57-O ) :   1.0441 B( 51-C , 63-H ) :   0.9667 B( 52-C , 53-C ) :   0.9323
B( 52-C , 58-O ) :   1.0310 B( 52-C , 64-H ) :   0.9745 B( 53-C , 59-O ) :   0.7650
B( 53-C , 65-H ) :   0.9646 B( 55-O , 66-H ) :   0.8874 B( 56-O , 67-H ) :   0.8895
B( 57-O , 68-H ) :   0.8938 B( 58-O , 69-H ) :   0.8850 B( 59-O , 70-H ) :   0.8528
B( 71-O , 72-O ) :   1.3459

FINAL SINGLE POINT ENERGY     -4801.662569832893

DIPOLE MOMENT
-------------
                                X             Y             Z
Electronic contribution:     -6.97088       6.77627      -6.19657
Nuclear contribution   :      2.83187      -8.56052       3.37323
                        -----------------------------------------
Total Dipole Moment    :     -4.13901      -1.78425      -2.82334
                        -----------------------------------------
Magnitude (a.u.)       :      5.31848
Magnitude (Debye)      :     13.51849

Rotational constants in cm-1:     0.002818     0.001896     0.001591
Rotational constants in MHz :    84.485992    56.848204    47.689819

                             ****ORCA TERMINATED NORMALLY****
TOTAL RUN TIME: 0 days 2 hours 41 minutes 55 seconds 916 msec
