 Gaussian 16, Revision A.03,
 Gaussian 16:  ES64L-G16RevA.03 25-Dec-2016

 --------------------------------------
 # Opt(MaxCycle=500) Freq B3lyp/Def2SVP
 --------------------------------------

 ------------------
 [Fe(H2O)6]2+ B3LYP
 ------------------
 Symbolic Z-matrix:
 Charge =  2 Multiplicity = 1

 SCF Done:  E(RB3LYP) =  -1721.16599413     A.U. after   17 cycles
 SCF Done:  E(RB3LYP) =  -1721.22390656     A.U. after   14 cycles
 SCF Done:  E(RB3LYP) =  -1721.28178251     A.U. after   15 cycles
 SCF Done:  E(RB3LYP) =  -1721.29484704     A.U. after   14 cycles
 SCF Done:  E(RB3LYP) =  -1721.29824044     A.U. after   14 cycles
 SCF Done:  E(RB3LYP) =  -1721.30237399     A.U. after   14 cycles
 SCF Done:  E(RB3LYP) =  -1721.30400322     A.U. after   14 cycles
 SCF Done:  E(RB3LYP) =  -1721.30519131     A.U. after   14 cycles
 SCF Done:  E(RB3LYP) =  -1721.30630730     A.U. after   16 cycles
 SCF Done:  E(RB3LYP) =  -1721.30690068     A.U. after   16 cycles
 SCF Done:  E(RB3LYP) =  -1721.32272360     A.U. after   11 cycles
 SCF Done:  E(RB3LYP) =  -1721.32272397     A.U. after   11 cycles
 SCF Done:  E(RB3LYP) =  -1721.32272356     A.U. after   11 cycles
 SCF Done:  E(RB3LYP) =  -1721.32272389     A.U. after   10 cycles
 SCF Done:  E(RB3LYP) =  -1721.32272444     A.U. after   10 cycles
 SCF Done:  E(RB3LYP) =  -1721.32272492     A.U. after   10 cycles
 SCF Done:  E(RB3LYP) =  -1721.32272531     A.U. after   10 cycles
 SCF Done:  E(RB3LYP) =  -1721.32272565     A.U. after   10 cycles
 SCF Done:  E(RB3LYP) =  -1721.32272610     A.U. after    7 cycles
 Optimization completed.
    -- Stationary point found.
 Normal termination of Gaussian 16 at Sat May 14 21:25:04 2022.

 -------------------------------------------------------------------
 #N Geom=AllCheck Guess=TCheck SCRF=Check GenChk RB3LYP/def2SVP Freq
 -------------------------------------------------------------------

 Structure from the checkpoint file:  "/scratch/Gau-119128.chk"
 ------------------
 [Fe(H2O)6]2+ B3LYP
 ------------------
 Charge =  2 Multiplicity = 1

                         Standard orientation:
 ---------------------------------------------------------------------
 Center     Atomic      Atomic             Coordinates (Angstroms)
 Number     Number       Type             X           Y           Z
 ---------------------------------------------------------------------
      1         26           0        0.000071    0.000036   -0.000109
      2          8           0        1.553261    0.075366   -1.287279
      3          8           0        0.903416    1.477433    1.036762
      4          8           0        1.036441   -1.398179    1.022159
      5          8           0       -1.553526   -0.076446    1.287080
      6          8           0       -0.903596   -1.478052   -1.036692
      7          8           0       -1.035343    1.400167   -1.021022
      8          1           0       -2.223501   -0.778313    1.250434
      9          1           0       -1.620019    0.348458    2.156927
     10          1           0       -0.620894   -2.406455   -1.014374
     11          1           0       -1.473397   -1.362643   -1.813810
     12          1           0       -0.795994    1.843446   -1.849969
     13          1           0       -1.941244    1.663230   -0.792197
     14          1           0        1.617586   -0.347889   -2.158106
     15          1           0        2.220547    0.779953   -1.252797
     16          1           0        1.474160    1.361144    1.813059
     17          1           0        0.619784    2.405589    1.016137
     18          1           0        1.940944   -1.664178    0.791227
     19          1           0        0.794949   -1.845591    1.848250
 ---------------------------------------------------------------------

 SCF Done:  E(RB3LYP) =  -1721.32272610     A.U. after    1 cycles

 The electronic state is 1-A.
 Alpha  occ. eigenvalues -- -256.36340 -30.30948 -26.18067 -26.18049 -26.18019
 Alpha  occ. eigenvalues --  -19.48307 -19.48295 -19.48292 -19.48282 -19.48223
 Alpha  occ. eigenvalues --  -19.48212  -3.71763  -2.49105  -2.49052  -2.48948
 Alpha  occ. eigenvalues --   -1.34287  -1.33364  -1.33290  -1.33171  -1.33046
 Alpha  occ. eigenvalues --   -1.32998  -0.87182  -0.87086  -0.87069  -0.87017
 Alpha  occ. eigenvalues --   -0.86977  -0.86878  -0.80924  -0.76304  -0.76276
 Alpha  occ. eigenvalues --   -0.75982  -0.75764  -0.75098  -0.66560  -0.66550
 Alpha  occ. eigenvalues --   -0.66363  -0.66105  -0.65471  -0.65241  -0.52876
 Alpha  occ. eigenvalues --   -0.52821  -0.52716
 Alpha virt. eigenvalues --   -0.32817  -0.32778  -0.30123  -0.24439  -0.24196
 Alpha virt. eigenvalues --   -0.24105  -0.20473  -0.20427  -0.16756  -0.16537
 Alpha virt. eigenvalues --   -0.16490  -0.16463  -0.16409  -0.16277  -0.06264

 Mulliken charges:
               1
     1  Fe   0.747345
     2  O   -0.255160
     3  O   -0.255200
     4  O   -0.257935
     5  O   -0.255374
     6  O   -0.255290
     7  O   -0.257855
     8  H    0.232832
     9  H    0.231932
    10  H    0.232407
    11  H    0.231955
    12  H    0.232185
    13  H    0.233280
    14  H    0.231874
    15  H    0.232893
    16  H    0.232039
    17  H    0.232456
    18  H    0.233358
    19  H    0.232260
 Sum of Mulliken charges =   2.00000

 Dipole moment (field-independent basis, Debye):
    X=             -0.0137    Y=             -0.0067    Z=             -0.0125  Tot=              0.0197
 Quadrupole moment (field-independent basis, Debye-Ang):
   XX=            -16.9444   YY=            -15.8042   ZZ=            -13.0681
   XY=             -0.1616   XZ=              0.1817   YZ=             -0.2120

  Exact polarizability:  43.701  -0.007  43.944   0.002  -0.025  44.988
 Approx polarizability:  51.667  -0.020  52.009   0.002  -0.041  53.583

 ******    1 imaginary frequencies (negative Signs) ******

                      1                      2                      3
                      A                      A                      A
 Frequencies --    -81.1374                98.2459               104.0559
 Red. masses --      2.5870                 3.9025                 7.6741
 Frc consts  --      0.0100                 0.0222                 0.0490
 IR Inten    --      0.0756                 0.0506               123.3138

                      4                      5                      6
                      A                      A                      A
 Frequencies --    104.6547               134.5661               147.2920
 Red. masses --      4.1616                 6.8597                 5.9104
 Frc consts  --      0.0269                 0.0732                 0.0755
 IR Inten    --      0.7212                34.7417                19.9733

                      7                      8                      9
                      A                      A                      A
 Frequencies --    162.4660               175.6202               178.7621
 Red. masses --      2.4265                 3.2431                 3.3495
 Frc consts  --      0.0377                 0.0589                 0.0631
 IR Inten    --      6.0737                 7.6668                 9.1095

                     10                     11                     12
                      A                      A                      A
 Frequencies --    215.3388               224.9396               229.2640
 Red. masses --      1.3648                 1.0759                 1.0941
 Frc consts  --      0.0373                 0.0321                 0.0339
 IR Inten    --      0.0073                 8.8354                16.8764

                     13                     14                     15
                      A                      A                      A
 Frequencies --    249.6255               272.9505               288.2485
 Red. masses --      1.1341                 1.0248                 1.1419
 Frc consts  --      0.0416                 0.0450                 0.0559
 IR Inten    --      0.0423                 0.1904               395.1668

                     16                     17                     18
                      A                      A                      A
 Frequencies --    298.4813               320.5150               326.6733
 Red. masses --      1.1238                 1.1202                 1.1087
 Frc consts  --      0.0590                 0.0678                 0.0697
 IR Inten    --      0.6970               514.4345               361.4648

                     19                     20                     21
                      A                      A                      A
 Frequencies --    341.1558               344.2599               366.0788
 Red. masses --      2.7914                 4.8722                 1.2834
 Frc consts  --      0.1914                 0.3402                 0.1013
 IR Inten    --      0.0573                 0.0243                 0.0737

                     22                     23                     24
                      A                      A                      A
 Frequencies --    379.0582               386.5010               409.0047
 Red. masses --      1.2740                 2.9843                 3.7373
 Frc consts  --      0.1079                 0.2627                 0.3683
 IR Inten    --      0.0184                 0.0014                12.4406

                     25                     26                     27
                      A                      A                      A
 Frequencies --    421.7208               424.5691               442.6138
 Red. masses --      5.0317                 3.6792                 1.2131
 Frc consts  --      0.5272                 0.3908                 0.1400
 IR Inten    --     32.0004                44.2917                89.2752

                     28                     29                     30
                      A                      A                      A
 Frequencies --    579.3099               585.3308               590.4740
 Red. masses --      1.2030                 1.1911                 1.1801
 Frc consts  --      0.2379                 0.2404                 0.2424
 IR Inten    --      0.0048                 0.0029                 0.0121

                     31                     32                     33
                      A                      A                      A
 Frequencies --    637.6025               645.0294               647.0911
 Red. masses --      1.3554                 1.3563                 1.3411
 Frc consts  --      0.3247                 0.3325                 0.3309
 IR Inten    --    190.3032               166.0710               153.8099

                     34                     35                     36
                      A                      A                      A
 Frequencies --   1611.5564              1613.7381              1615.1037
 Red. masses --      1.0981                 1.0984                 1.0978
 Frc consts  --      1.6803                 1.6853                 1.6873
 IR Inten    --    222.6480               172.7256               148.4491

                     37                     38                     39
                      A                      A                      A
 Frequencies --   1616.8078              1617.7851              1625.3949
 Red. masses --      1.0967                 1.0955                 1.0895
 Frc consts  --      1.6891                 1.6893                 1.6959
 IR Inten    --      0.3283                 0.1097                 0.0162

                     40                     41                     42
                      A                      A                      A
 Frequencies --   3760.1589              3760.8803              3761.7133
 Red. masses --      1.0447                 1.0447                 1.0446
 Frc consts  --      8.7028                 8.7057                 8.7091
 IR Inten    --    255.7400                 9.2696               276.1967

                     43                     44                     45
                      A                      A                      A
 Frequencies --   3763.0174              3764.9527              3770.9303
 Red. masses --      1.0447                 1.0446                 1.0455
 Frc consts  --      8.7158                 8.7244                 8.7595
 IR Inten    --      0.2774               280.0378                 0.0226

                     46                     47                     48
                      A                      A                      A
 Frequencies --   3842.8551              3843.5891              3843.6895
 Red. masses --      1.0850                 1.0850                 1.0851
 Frc consts  --      9.4404                 9.4442                 9.4452
 IR Inten    --     26.6478               330.5979                38.0443

                     49                     50                     51
                      A                      A                      A
 Frequencies --   3844.2958              3848.3333              3848.9561
 Red. masses --      1.0851                 1.0853                 1.0853
 Frc consts  --      9.4484                 9.4697                 9.4728
 IR Inten    --    398.4868                 5.6128               399.6968

 - Thermochemistry -
 -------------------
 Temperature   298.150 Kelvin.  Pressure   1.00000 Atm.
 Atom     1 has atomic number 26 and mass  55.93494

 Molecular mass:   163.99833 amu.
 Principal axes and moments of inertia in atomic units:
                           1         2         3
     Eigenvalues --  1114.709431132.257241174.42241
           X            0.99992  -0.01175   0.00434
           Y            0.01178   0.99991  -0.00665
           Z           -0.00426   0.00670   0.99997
 This molecule is an asymmetric top.
 Rotational symmetry number  1.
 Warning -- assumption of classical behavior for rotation
           may cause significant error
 Rotational temperatures (Kelvin)      0.07770     0.07650     0.07375
 Rotational constants (GHZ):           1.61902     1.59393     1.53671
    1 imaginary frequencies ignored.
 Zero-point vibrational energy     395277.6 (Joules/Mol)
                                   94.47362 (Kcal/Mol)
 Warning -- explicit consideration of  29 degrees of freedom as
           vibrations may cause significant error
 Vibrational temperatures:    141.35   149.71   150.57   193.61   211.92
          (Kelvin)            233.75   252.68   257.20   309.82   323.64
                              329.86   359.16   392.71   414.73   429.45
                              461.15   470.01   490.85   495.31   526.71
                              545.38   556.09   588.47   606.76   610.86
                              636.82   833.50   842.16   849.56   917.37
                              928.05   931.02  2318.67  2321.81  2323.77
                             2326.23  2327.63  2338.58  5410.03  5411.07
                             5412.27  5414.14  5416.93  5425.53  5529.01
                             5530.07  5530.21  5531.08  5536.89  5537.79

 Zero-point correction=                           0.150553 (Hartree/Particle)
 Thermal correction to Energy=                    0.166688
 Thermal correction to Enthalpy=                  0.167632
 Thermal correction to Gibbs Free Energy=         0.110941
 Sum of electronic and zero-point Energies=          -1721.172173
 Sum of electronic and thermal Energies=             -1721.156038
 Sum of electronic and thermal Enthalpies=           -1721.155094
 Sum of electronic and thermal Free Energies=        -1721.211785

                     E (Thermal)             CV                S
                      KCal/Mol        Cal/Mol-Kelvin    Cal/Mol-Kelvin
 Total                  104.598             56.507            119.315
 Electronic               0.000              0.000              0.000
 Translational            0.889              2.981             41.193
 Rotational               0.889              2.981             28.785
 Vibrational            102.821             50.545             49.338
 Vibration     1          0.604              1.950              3.489
 Vibration     2          0.605              1.946              3.377
 Vibration     3          0.605              1.946              3.366
 Vibration     4          0.613              1.919              2.880
 Vibration     5          0.617              1.906              2.707
 Vibration     6          0.623              1.888              2.521
 Vibration     7          0.628              1.872              2.374
 Vibration     8          0.629              1.868              2.341
 Vibration     9          0.645              1.818              1.998
 Vibration    10          0.650              1.803              1.919
 Vibration    11          0.652              1.796              1.885
 Vibration    12          0.662              1.763              1.733
 Vibration    13          0.676              1.723              1.577
 Vibration    14          0.685              1.696              1.484
 Vibration    15          0.692              1.677              1.425
 Vibration    16          0.706              1.634              1.307
 Vibration    17          0.710              1.622              1.276
 Vibration    18          0.721              1.593              1.207
 Vibration    19          0.723              1.587              1.192
 Vibration    20          0.739              1.542              1.096
 Vibration    21          0.749              1.515              1.043
 Vibration    22          0.755              1.499              1.014
 Vibration    23          0.773              1.451              0.930
 Vibration    24          0.784              1.423              0.886
 Vibration    25          0.787              1.417              0.877
 Vibration    26          0.802              1.377              0.818
 Vibration    27          0.936              1.076              0.487
 Vibration    28          0.942              1.063              0.476
 Vibration    29          0.948              1.052              0.466

                           ! Non-Optimized Parameters !
 Normal termination of Gaussian 16 at Sat May 14 21:26:01 2022.
