                         Program Version 5.0.0 -  RELEASE  -
|  1> ! RHF MP2 cc-pVDZ pal8
|  2> ! NoFrozenCore
|  3>
|  4> *xyz 0 1
|  5>   C   -2.58160084178652      0.85828318402722      0.00080156853200
|  6>   C   -1.19423075211164      0.86536269424988      0.00098054343823
|  7>   C   -0.48184821662044      2.06241189554032      0.00026969425476
|  8>   C   -1.19416423453283      3.25950055784776     -0.00062846767782
|  9>   C   -2.58153392669185      3.26665691565461     -0.00081697160061
| 10>   C   -3.26678503079028      2.06248916662553      0.00011048883372
| 11>   H   -3.12770213250513     -0.07395399173453      0.00130680306569
| 12>   H   -0.65977525765669     -0.07535746059244      0.00163025822144
| 13>   H   -0.65965646486742      4.20019103552288     -0.00124317258025
| 14>   H   -3.12758341376550      4.19892427265791     -0.00156478051965
| 15>   C   1.01725661812022      2.06237059889130      0.00078164411047
| 16>   C   1.72979440054537      2.06154569389869     -1.19627740111421
| 17>   C   1.72939598080617      2.06315592590829      1.19791401450705
| 18>   C   3.11712542600413      2.06150240870885     -1.20321779640295
| 19>   H   1.19530943085168      2.06092784488391     -2.13697707431363
| 20>   C   3.11678391264014      2.06312227056329      1.20519298930278
| 21>   H   1.19468583944535      2.06380338066680      2.13849130201270
| 22>   C   3.80213032469577      2.06229337795585      0.00112229842861
| 23>   H   3.66351142389813      2.06086028564820     -2.13528741294019
| 24>   H   3.66287659702490      2.06373408667386      2.13743659617327
| 25>   Cl  -5.00747133311841      2.06253716373157     -0.00043793949156
| 26>   Cl  5.54284890041484      2.06224511267023      0.00136880576014
| 27> **                         ****END OF INPUT****

CARTESIAN COORDINATES (ANGSTROEM)
---------------------------------
  C     -2.581601    0.858283    0.000802
  C     -1.194231    0.865363    0.000981
  C     -0.481848    2.062412    0.000270
  C     -1.194164    3.259501   -0.000628
  C     -2.581534    3.266657   -0.000817
  C     -3.266785    2.062489    0.000110
  H     -3.127702   -0.073954    0.001307
  H     -0.659775   -0.075357    0.001630
  H     -0.659656    4.200191   -0.001243
  H     -3.127583    4.198924   -0.001565
  C      1.017257    2.062371    0.000782
  C      1.729794    2.061546   -1.196277
  C      1.729396    2.063156    1.197914
  C      3.117125    2.061502   -1.203218
  H      1.195309    2.060928   -2.136977
  C      3.116784    2.063122    1.205193
  H      1.194686    2.063803    2.138491
  C      3.802130    2.062293    0.001122
  H      3.663511    2.060860   -2.135287
  H      3.662877    2.063734    2.137437
  Cl    -5.007471    2.062537   -0.000438
  Cl     5.542849    2.062245    0.001369

 Total Charge           Charge          ....    0
 Multiplicity           Mult            ....    1
 Number of Electrons    NEL             ....  114
 Basis Dimension        Dim             ....  244

ORBITAL ENERGIES
----------------

  NO   OCC          E(Eh)            E(eV)
   0   2.0000    -104.836709     -2852.7519
   1   2.0000    -104.836705     -2852.7518
   2   2.0000     -11.309432      -307.7453
   3   2.0000     -11.309428      -307.7452
   4   2.0000     -11.263774      -306.5029
   5   2.0000     -11.263114      -306.4849
   6   2.0000     -11.258930      -306.3711
   7   2.0000     -11.258929      -306.3710
   8   2.0000     -11.258871      -306.3695
   9   2.0000     -11.258868      -306.3694
  10   2.0000     -11.257244      -306.3252
  11   2.0000     -11.257241      -306.3251
  12   2.0000     -11.257154      -306.3227
  13   2.0000     -11.257140      -306.3224
  14   2.0000     -10.563730      -287.4537
  15   2.0000     -10.563726      -287.4536
  16   2.0000      -8.031373      -218.5448
  17   2.0000      -8.031369      -218.5447
  18   2.0000      -8.027938      -218.4513
  19   2.0000      -8.027934      -218.4512
  20   2.0000      -8.027840      -218.4486
  21   2.0000      -8.027836      -218.4485
  22   2.0000      -1.206613       -32.8336
  23   2.0000      -1.195762       -32.5383
  24   2.0000      -1.145031       -31.1579
  25   2.0000      -1.115356       -30.3504
  26   2.0000      -1.040347       -28.3093
  27   2.0000      -1.040344       -28.3092
  28   2.0000      -1.036744       -28.2112
  29   2.0000      -0.974611       -26.5205
  30   2.0000      -0.855835       -23.2884
  31   2.0000      -0.855825       -23.2882
  32   2.0000      -0.846105       -23.0237
  33   2.0000      -0.801886       -21.8204
  34   2.0000      -0.729049       -19.8384
  35   2.0000      -0.674179       -18.3453
  36   2.0000      -0.661454       -17.9991
  37   2.0000      -0.661453       -17.9991
  38   2.0000      -0.652375       -17.7520
  39   2.0000      -0.639219       -17.3940
  40   2.0000      -0.607417       -16.5286
  41   2.0000      -0.607409       -16.5284
  42   2.0000      -0.587480       -15.9861
  43   2.0000      -0.549767       -14.9599
  44   2.0000      -0.549765       -14.9599
  45   2.0000      -0.540250       -14.7009
  46   2.0000      -0.521503       -14.1908
  47   2.0000      -0.521494       -14.1906
  48   2.0000      -0.499528       -13.5928
  49   2.0000      -0.470303       -12.7976
  50   2.0000      -0.470300       -12.7975
  51   2.0000      -0.456406       -12.4194
  52   2.0000      -0.456406       -12.4194
  53   2.0000      -0.361538        -9.8379
  54   2.0000      -0.353771        -9.6266
  55   2.0000      -0.339247        -9.2314
  56   2.0000      -0.339244        -9.2313
  57   0.0000       0.101506         2.7621
  58   0.0000       0.117619         3.2006
  59   0.0000       0.117620         3.2006
  60   0.0000       0.132242         3.5985
  61   0.0000       0.172994         4.7074

MULLIKEN ATOMIC CHARGES
-----------------------
   0 C :    0.098886
   1 C :    0.033006
   2 C :   -0.094420
   3 C :    0.033006
   4 C :    0.098886
   5 C :   -0.196627
   6 H :    0.039787
   7 H :    0.024065
   8 H :    0.024065
   9 H :    0.039787
  10 C :   -0.094470
  11 C :    0.033061
  12 C :    0.033007
  13 C :    0.098891
  14 H :    0.024070
  15 C :    0.098920
  16 H :    0.024066
  17 C :   -0.196671
  18 H :    0.039789
  19 H :    0.039790
  20 Cl:   -0.100441
  21 Cl:   -0.100453
Sum of atomic charges:    0.0000000

LOEWDIN ATOMIC CHARGES
----------------------
   0 C :   -0.028478
   1 C :   -0.008557
   2 C :   -0.025210
   3 C :   -0.008557
   4 C :   -0.028478
   5 C :   -0.135883
   6 H :    0.034330
   7 H :    0.032743
   8 H :    0.032743
   9 H :    0.034330
  10 C :   -0.025199
  11 C :   -0.008548
  12 C :   -0.008564
  13 C :   -0.028480
  14 H :    0.032739
  15 C :   -0.028480
  16 H :    0.032745
  17 C :   -0.135860
  18 H :    0.034330
  19 H :    0.034331
  20 Cl:    0.101015
  21 Cl:    0.100987

  Mayer bond orders larger than 0.100000
B(  0-C ,  1-C ) :   1.4658 B(  0-C ,  5-C ) :   1.3878 B(  0-C ,  6-H ) :   0.9693
B(  1-C ,  2-C ) :   1.4382 B(  1-C ,  7-H ) :   0.9721 B(  2-C ,  3-C ) :   1.4382
B(  2-C , 10-C ) :   1.0494 B(  3-C ,  4-C ) :   1.4658 B(  3-C ,  8-H ) :   0.9721
B(  4-C ,  5-C ) :   1.3878 B(  4-C ,  9-H ) :   0.9693 B(  5-C , 20-Cl) :   1.0622
B( 10-C , 11-C ) :   1.4380 B( 10-C , 12-C ) :   1.4383 B( 11-C , 13-C ) :   1.4659
B( 11-C , 14-H ) :   0.9721 B( 12-C , 15-C ) :   1.4656 B( 12-C , 16-H ) :   0.9721
B( 13-C , 17-C ) :   1.3877 B( 13-C , 18-H ) :   0.9693 B( 15-C , 17-C ) :   1.3880
B( 15-C , 19-H ) :   0.9693 B( 17-C , 21-Cl) :   1.0622

MP2 TOTAL ENERGY:    -1379.993712791 Eh
FINAL SINGLE POINT ENERGY     -1379.993712790538

DIPOLE MOMENT
-------------
                                X             Y             Z
Electronic contribution:     -0.00020      -0.00000       0.00008
Nuclear contribution   :      0.00013       0.00000      -0.00010
                        -----------------------------------------
Total Dipole Moment    :     -0.00007      -0.00000      -0.00002
                        -----------------------------------------
Magnitude (a.u.)       :      0.00007
Magnitude (Debye)      :      0.00019

Rotational constants in cm-1:     0.096140     0.005779     0.005779
Rotational constants in MHz :  2882.207816   173.250355   173.250260

                             ****ORCA TERMINATED NORMALLY****
TOTAL RUN TIME: 0 days 0 hours 0 minutes 39 seconds 858 msec
