 Gaussian 16, Revision A.03,
 Gaussian 16:  ES64L-G16RevA.03 25-Dec-2016

 -----------------------
 #p UHF/def2SVP Opt Freq
 -----------------------

 ------------
 [Fe(H2O)6]2+
 ------------
 Symbolic Z-matrix:
 Charge =  2 Multiplicity = 5

 SCF Done:  E(UHF) =  -1717.70850090     A.U. after   26 cycles
 SCF Done:  E(UHF) =  -1717.73758276     A.U. after   12 cycles
 SCF Done:  E(UHF) =  -1717.75467657     A.U. after   13 cycles
 SCF Done:  E(UHF) =  -1717.75885815     A.U. after   12 cycles
 SCF Done:  E(UHF) =  -1717.76096875     A.U. after   26 cycles
 SCF Done:  E(UHF) =  -1717.76339060     A.U. after   23 cycles
 SCF Done:  E(UHF) =  -1717.76395858     A.U. after    9 cycles
 SCF Done:  E(UHF) =  -1717.76443114     A.U. after   11 cycles
 SCF Done:  E(UHF) =  -1717.76497645     A.U. after   11 cycles
 SCF Done:  E(UHF) =  -1717.76516998     A.U. after   16 cycles
 SCF Done:  E(UHF) =  -1717.76518244     A.U. after    9 cycles
 SCF Done:  E(UHF) =  -1717.76518405     A.U. after    7 cycles
 SCF Done:  E(UHF) =  -1717.76518807     A.U. after    8 cycles
 SCF Done:  E(UHF) =  -1717.76519005     A.U. after    7 cycles
 SCF Done:  E(UHF) =  -1717.76519189     A.U. after    7 cycles
 SCF Done:  E(UHF) =  -1717.76519275     A.U. after    7 cycles
 Optimization completed.
    -- Stationary point found.
 Normal termination of Gaussian 16 at Sun May 15 11:13:40 2022.

 ----------------------------------------------------------------
 #P Geom=AllCheck Guess=TCheck SCRF=Check GenChk UHF/def2SVP Freq
 ----------------------------------------------------------------

 Structure from the checkpoint file:  "/scratch/Gau-340598.chk"
 ------------
 [Fe(H2O)6]2+
 ------------
 Charge =  2 Multiplicity = 5

                         Standard orientation:
 ---------------------------------------------------------------------
 Center     Atomic      Atomic             Coordinates (Angstroms)
 Number     Number       Type             X           Y           Z
 ---------------------------------------------------------------------
      1         26           0       -0.000007   -0.000007   -0.000004
      2          8           0        1.813157   -0.016454   -1.235610
      3          1           0        1.946848    0.448334   -2.055296
      4          8           0        0.892856   -1.578539    1.235162
      5          1           0        0.891533   -2.512641    1.052526
      6          8           0       -0.892862    1.578550   -1.235137
      7          1           0       -0.891470    2.512651   -1.052502
      8          8           0       -1.813139    0.016453    1.235628
      9          1           0       -1.946911   -0.448467    2.055226
     10          8           0       -0.921168   -1.562415   -1.234902
     11          1           0       -0.585657   -1.910953   -2.054499
     12          8           0        0.921169    1.562421    1.234870
     13          1           0        0.585757    1.910796    2.054577
     14          1           0       -1.730779   -2.028233   -1.052015
     15          1           0        1.362617   -1.461971    2.054626
     16          1           0        1.730673    2.028390    1.051895
     17          1           0        2.621504   -0.484577   -1.053020
     18          1           0       -1.362602    1.462017   -2.054619
     19          1           0       -2.621417    0.484724    1.053108
 ---------------------------------------------------------------------

 SCF Done:  E(UHF) =  -1717.76519275     A.U. after    1 cycles

 The electronic state is 5-A.
 Alpha  occ. eigenvalues -- -261.61973 -32.24550 -27.74546 -27.74544 -27.71142
 Alpha  occ. eigenvalues --  -20.88956 -20.88954 -20.88954 -20.88953 -20.88951
 Alpha  occ. eigenvalues --  -20.88950  -4.60765  -3.25128  -3.25124  -3.17782
 Alpha  occ. eigenvalues --   -1.67056  -1.66457  -1.66457  -1.66362  -1.66268
 Alpha  occ. eigenvalues --   -1.66268  -1.05468  -1.05374  -1.05373  -1.05149
 Alpha  occ. eigenvalues --   -1.05080  -1.05080  -1.03410  -1.03408  -0.98904
 Alpha  occ. eigenvalues --   -0.97329  -0.97329  -0.94620  -0.94619  -0.94123
 Alpha  occ. eigenvalues --   -0.90103  -0.85292  -0.85291  -0.84501  -0.84501
 Alpha  occ. eigenvalues --   -0.84487  -0.84132  -0.84131  -0.83270
 Alpha virt. eigenvalues --   -0.18086  -0.10356  -0.10207  -0.10207  -0.06150
 Alpha virt. eigenvalues --   -0.06150  -0.02350  -0.01060  -0.01060  -0.01055
 Alpha virt. eigenvalues --   -0.00856  -0.00856   0.00372   0.10174   0.13571

  Beta  occ. eigenvalues -- -261.61773 -32.12114 -27.61192 -27.61192 -27.61130
  Beta  occ. eigenvalues --  -20.88841 -20.88839 -20.88839 -20.88838 -20.88836
  Beta  occ. eigenvalues --  -20.88835  -4.25503  -2.83417  -2.78380  -2.78378
  Beta  occ. eigenvalues --   -1.66826  -1.66224  -1.66224  -1.66136  -1.66005
  Beta  occ. eigenvalues --   -1.66005  -1.05265  -1.05039  -1.04967  -1.04967
  Beta  occ. eigenvalues --   -1.04895  -1.04895  -0.98136  -0.93971  -0.93970
  Beta  occ. eigenvalues --   -0.93539  -0.93041  -0.93041  -0.84675  -0.84675
  Beta  occ. eigenvalues --   -0.84450  -0.84217  -0.84217  -0.84207  -0.74098
  Beta virt. eigenvalues --   -0.17958  -0.10258  -0.10067  -0.10067  -0.06899
  Beta virt. eigenvalues --   -0.06899  -0.02310  -0.01539  -0.01538  -0.00954
  Beta virt. eigenvalues --   -0.00751  -0.00751  -0.00555  -0.00555   0.03407

 Mulliken charges and spin densities:
               1          2
     1  Fe   1.388953   3.974573
     2  O   -0.393301   0.002352
     3  H    0.247721   0.000913
     4  O   -0.393298   0.002353
     5  H    0.247421   0.000973
     6  O   -0.393299   0.002353
     7  H    0.247420   0.000973
     8  O   -0.393303   0.002352
     9  H    0.247723   0.000913
    10  O   -0.393299   0.002351
    11  H    0.247719   0.000913
    12  O   -0.393298   0.002351
    13  H    0.247718   0.000913
    14  H    0.247420   0.000973
    15  H    0.247718   0.000913
    16  H    0.247419   0.000973
    17  H    0.247423   0.000973
    18  H    0.247720   0.000913
    19  H    0.247423   0.000973
 Sum of Mulliken charges =   2.00000   4.00000

 Dipole moment (field-independent basis, Debye):
    X=              0.0001    Y=              0.0000    Z=             -0.0001  Tot=              0.0001
 Quadrupole moment (field-independent basis, Debye-Ang):
   XX=            -13.2721   YY=            -13.2727   ZZ=            -13.3677
   XY=             -0.0000   XZ=              0.0001   YZ=             -0.0000

  Exact polarizability:  34.132  -0.000  34.133   0.000   0.000  36.348
 Approx polarizability:  27.805  -0.000  27.806   0.000   0.000  29.922

                      1                      2                      3
                      A                      A                      A
 Frequencies --     82.8449                82.8488                83.1181
 Red. masses --      4.4407                 4.4408                 4.5221
 Frc consts  --      0.0180                 0.0180                 0.0184
 IR Inten    --      2.1226                 2.1229                 2.8749
 Raman Activ --      0.0000                 0.0000                 0.0000

                      4                      5                      6
                      A                      A                      A
 Frequencies --    101.0995               101.1022               104.3953
 Red. masses --      4.6099                 4.6100                 4.0845
 Frc consts  --      0.0278                 0.0278                 0.0262
 IR Inten    --      0.0000                 0.0000                 0.0000
 Raman Activ --      0.0172                 0.0172                 0.0047

                      7                      8                      9
                      A                      A                      A
 Frequencies --    122.0795               123.1209               123.1247
 Red. masses --      5.0282                 4.3449                 4.3456
 Frc consts  --      0.0442                 0.0388                 0.0388
 IR Inten    --      0.5786                 0.8018                 0.8017
 Raman Activ --      0.0000                 0.0000                 0.0000

                     10                     11                     12
                      A                      A                      A
 Frequencies --    198.6545               198.6813               205.9808
 Red. masses --      1.0455                 1.0455                 1.9617
 Frc consts  --      0.0243                 0.0243                 0.0490
 IR Inten    --      0.7917                 0.7906                 0.0000
 Raman Activ --      0.0000                 0.0000                 2.0557

                     13                     14                     15
                      A                      A                      A
 Frequencies --    206.0110               235.2906               253.5475
 Red. masses --      1.9624                 1.0295                 1.5507
 Frc consts  --      0.0491                 0.0336                 0.0587
 IR Inten    --      0.0000                 0.0000                 0.0000
 Raman Activ --      2.0538                 3.7689                 2.3286

                     16                     17                     18
                      A                      A                      A
 Frequencies --    253.5664               324.4760               325.5585
 Red. masses --      1.5496                 6.2234                 5.8000
 Frc consts  --      0.0587                 0.3860                 0.3622
 IR Inten    --      0.0000                 0.0797                 0.0000
 Raman Activ --      2.3304                 0.0000                 0.1883

                     19                     20                     21
                      A                      A                      A
 Frequencies --    335.2463               335.2594               364.8710
 Red. masses --      6.0405                 6.0407                 1.0206
 Frc consts  --      0.4000                 0.4000                 0.0801
 IR Inten    --      4.0261                 4.0271                16.7730
 Raman Activ --      0.0000                 0.0000                 0.0000

                     22                     23                     24
                      A                      A                      A
 Frequencies --    403.7452               429.4784               429.4827
 Red. masses --      1.1470                 1.1340                 1.1340
 Frc consts  --      0.1102                 0.1232                 0.1232
 IR Inten    --      0.0000                 0.0000                 0.0000
 Raman Activ --      3.8605                 4.5666                 4.5662

                     25                     26                     27
                      A                      A                      A
 Frequencies --    455.2125               460.2022               460.2097
 Red. masses --      1.1573                 1.1743                 1.1743
 Frc consts  --      0.1413                 0.1465                 0.1465
 IR Inten    --    279.6396               431.7314               431.6621
 Raman Activ --      0.0000                 0.0000                 0.0000

                     28                     29                     30
                      A                      A                      A
 Frequencies --    545.6647               545.6778               567.2453
 Red. masses --      1.1577                 1.1577                 1.2246
 Frc consts  --      0.2031                 0.2031                 0.2322
 IR Inten    --      0.0000                 0.0000               569.7372
 Raman Activ --      0.7017                 0.7014                 0.0000

                     31                     32                     33
                      A                      A                      A
 Frequencies --    567.2520               570.5261               581.8851
 Red. masses --      1.2246                 1.1691                 1.2179
 Frc consts  --      0.2322                 0.2242                 0.2430
 IR Inten    --    569.6582                 0.0009               522.5533
 Raman Activ --      0.0000                 0.0831                 0.0000

                     34                     35                     36
                      A                      A                      A
 Frequencies --   1764.6640              1764.6667              1765.6809
 Red. masses --      1.0904                 1.0904                 1.0878
 Frc consts  --      2.0007                 2.0007                 1.9981
 IR Inten    --      0.0003                 0.0000               279.8068
 Raman Activ --      7.5177                 7.5175                 0.0000

                     37                     38                     39
                      A                      A                      A
 Frequencies --   1765.6826              1766.7266              1772.2327
 Red. masses --      1.0878                 1.0880                 1.0844
 Frc consts  --      1.9981                 2.0009                 2.0066
 IR Inten    --    279.7933               262.1543                 0.0000
 Raman Activ --      0.0000                 0.0000                 0.9826

                     40                     41                     42
                      A                      A                      A
 Frequencies --   4067.5300              4067.5349              4071.8546
 Red. masses --      1.0456                 1.0456                 1.0460
 Frc consts  --     10.1922                10.1922                10.2175
 IR Inten    --      0.0000                 0.0000               329.3721
 Raman Activ --     37.1336                37.1331                 0.0000

                     43                     44                     45
                      A                      A                      A
 Frequencies --   4072.1772              4072.1796              4082.9333
 Red. masses --      1.0460                 1.0460                 1.0470
 Frc consts  --     10.2198                10.2198                10.2831
 IR Inten    --    356.7196               356.7081                 0.0000
 Raman Activ --      0.0000                 0.0000               237.4758

                     46                     47                     48
                      A                      A                      A
 Frequencies --   4150.7472              4150.7494              4151.4802
 Red. masses --      1.0842                 1.0842                 1.0843
 Frc consts  --     11.0055                11.0055                11.0109
 IR Inten    --      0.0003                 0.0004               460.5918
 Raman Activ --     49.4941                49.4930                 0.0006

                     49                     50                     51
                      A                      A                      A
 Frequencies --   4151.4825              4151.7799              4152.5249
 Red. masses --      1.0843                 1.0843                 1.0844
 Frc consts  --     11.0109                11.0122                11.0172
 IR Inten    --    460.5778                 0.0058               698.9971
 Raman Activ --      0.0002                68.2659                 0.0000

 - Thermochemistry -
 -------------------
 Temperature   298.150 Kelvin.  Pressure   1.00000 Atm.
 Atom     1 has atomic number 26 and mass  55.93494

 Molecular mass:   163.99833 amu.
 Principal axes and moments of inertia in atomic units:
                           1         2         3
     Eigenvalues --  1321.419751321.423741366.85149
           X            0.99999  -0.00385   0.00001
           Y            0.00385   0.99999   0.00000
           Z           -0.00001  -0.00000   1.00000
 This molecule is an asymmetric top.
 Rotational symmetry number  1.
 Warning -- assumption of classical behavior for rotation
           may cause significant error
 Rotational temperatures (Kelvin)      0.06555     0.06555     0.06337
 Rotational constants (GHZ):           1.36576     1.36576     1.32036
 Zero-point vibrational energy     419411.3 (Joules/Mol)
                                  100.24170 (Kcal/Mol)
 Warning -- explicit consideration of  33 degrees of freedom as
           vibrations may cause significant error
 Vibrational temperatures:    119.20   119.20   119.59   145.46   145.46
          (Kelvin)            150.20   175.65   177.14   177.15   285.82
                              285.86   296.36   296.40   338.53   364.80
                              364.83   466.85   468.41   482.34   482.36
                              524.97   580.90   617.92   617.93   654.95
                              662.13   662.14   785.09   785.11   816.14
                              816.15   820.86   837.20  2538.96  2538.96
                             2540.42  2540.42  2541.93  2549.85  5852.27
                             5852.28  5858.49  5858.95  5858.96  5874.43
                             5972.00  5972.00  5973.05  5973.06  5973.49
                             5974.56

 Zero-point correction=                           0.159745 (Hartree/Particle)
 Thermal correction to Energy=                    0.177466
 Thermal correction to Enthalpy=                  0.178411
 Thermal correction to Gibbs Free Energy=         0.115471
 Sum of electronic and zero-point Energies=          -1717.605447
 Sum of electronic and thermal Energies=             -1717.587726
 Sum of electronic and thermal Enthalpies=           -1717.586782
 Sum of electronic and thermal Free Energies=        -1717.649721

                     E (Thermal)             CV                S
                      KCal/Mol        Cal/Mol-Kelvin    Cal/Mol-Kelvin
 Total                  111.362             59.269            132.467
 Electronic               0.000              0.000              3.198
 Translational            0.889              2.981             41.193
 Rotational               0.889              2.981             29.258
 Vibrational            109.584             53.307             58.818
 Vibration     1          0.600              1.961              3.822
 Vibration     2          0.600              1.961              3.822
 Vibration     3          0.600              1.961              3.816
 Vibration     4          0.604              1.948              3.433
 Vibration     5          0.604              1.948              3.433
 Vibration     6          0.605              1.946              3.371
 Vibration     7          0.610              1.931              3.067
 Vibration     8          0.610              1.930              3.051
 Vibration     9          0.610              1.930              3.051
 Vibration    10          0.637              1.842              2.146
 Vibration    11          0.637              1.842              2.145
 Vibration    12          0.640              1.831              2.079
 Vibration    13          0.640              1.831              2.079
 Vibration    14          0.655              1.787              1.838
 Vibration    15          0.665              1.757              1.706
 Vibration    16          0.665              1.757              1.706
 Vibration    17          0.709              1.627              1.287
 Vibration    18          0.710              1.624              1.282
 Vibration    19          0.716              1.605              1.235
 Vibration    20          0.716              1.605              1.235
 Vibration    21          0.738              1.545              1.101
 Vibration    22          0.769              1.462              0.949
 Vibration    23          0.791              1.406              0.860
 Vibration    24          0.791              1.406              0.860
 Vibration    25          0.814              1.349              0.780
 Vibration    26          0.818              1.338              0.766
 Vibration    27          0.818              1.338              0.765
 Vibration    28          0.901              1.149              0.553
 Vibration    29          0.901              1.149              0.553
 Vibration    30          0.923              1.102              0.510
 Vibration    31          0.923              1.102              0.510
 Vibration    32          0.927              1.095              0.503
 Vibration    33          0.939              1.070              0.482

 Optimization completed.
    -- Stationary point found.
 Normal termination of Gaussian 16 at Sun May 15 11:14:23 2022.
