                         Program Version 5.0.0 -  RELEASE  -
|  1> ! BLYP cc-pVDZ NoRI pal8 VeryTightSCF
|  2>
|  3> *xyz 0 1
|  4>   C   -2.58160084178652      0.85828318402722      0.00080156853200
|  5>   C   -1.19423075211164      0.86536269424988      0.00098054343823
|  6>   C   -0.48184821662044      2.06241189554032      0.00026969425476
|  7>   C   -1.19416423453283      3.25950055784776     -0.00062846767782
|  8>   C   -2.58153392669185      3.26665691565461     -0.00081697160061
|  9>   C   -3.26678503079028      2.06248916662553      0.00011048883372
| 10>   H   -3.12770213250513     -0.07395399173453      0.00130680306569
| 11>   H   -0.65977525765669     -0.07535746059244      0.00163025822144
| 12>   H   -0.65965646486742      4.20019103552288     -0.00124317258025
| 13>   H   -3.12758341376550      4.19892427265791     -0.00156478051965
| 14>   C   1.01725661812022      2.06237059889130      0.00078164411047
| 15>   C   1.72979440054537      2.06154569389869     -1.19627740111421
| 16>   C   1.72939598080617      2.06315592590829      1.19791401450705
| 17>   C   3.11712542600413      2.06150240870885     -1.20321779640295
| 18>   H   1.19530943085168      2.06092784488391     -2.13697707431363
| 19>   C   3.11678391264014      2.06312227056329      1.20519298930278
| 20>   H   1.19468583944535      2.06380338066680      2.13849130201270
| 21>   C   3.80213032469577      2.06229337795585      0.00112229842861
| 22>   H   3.66351142389813      2.06086028564820     -2.13528741294019
| 23>   H   3.66287659702490      2.06373408667386      2.13743659617327
| 24>   Cl  -5.00747133311841      2.06253716373157     -0.00043793949156
| 25>   Cl  5.54284890041484      2.06224511267023      0.00136880576014
| 26> *
| 27>
| 28>                          ****END OF INPUT****

CARTESIAN COORDINATES (ANGSTROEM)
---------------------------------
  C     -2.581601    0.858283    0.000802
  C     -1.194231    0.865363    0.000981
  C     -0.481848    2.062412    0.000270
  C     -1.194164    3.259501   -0.000628
  C     -2.581534    3.266657   -0.000817
  C     -3.266785    2.062489    0.000110
  H     -3.127702   -0.073954    0.001307
  H     -0.659775   -0.075357    0.001630
  H     -0.659656    4.200191   -0.001243
  H     -3.127583    4.198924   -0.001565
  C      1.017257    2.062371    0.000782
  C      1.729794    2.061546   -1.196277
  C      1.729396    2.063156    1.197914
  C      3.117125    2.061502   -1.203218
  H      1.195309    2.060928   -2.136977
  C      3.116784    2.063122    1.205193
  H      1.194686    2.063803    2.138491
  C      3.802130    2.062293    0.001122
  H      3.663511    2.060860   -2.135287
  H      3.662877    2.063734    2.137437
  Cl    -5.007471    2.062537   -0.000438
  Cl     5.542849    2.062245    0.001369

 Total Charge           Charge          ....    0
 Multiplicity           Mult            ....    1
 Number of Electrons    NEL             ....  114
 Basis Dimension        Dim             ....  244

ORBITAL ENERGIES
----------------

  NO   OCC          E(Eh)            E(eV)
   0   2.0000    -100.746592     -2741.4541
   1   2.0000    -100.746589     -2741.4541
   2   2.0000      -9.982833      -271.6467
   3   2.0000      -9.982830      -271.6466
   4   2.0000      -9.942546      -270.5504
   5   2.0000      -9.942415      -270.5469
   6   2.0000      -9.938510      -270.4406
   7   2.0000      -9.938509      -270.4406
   8   2.0000      -9.938505      -270.4405
   9   2.0000      -9.938502      -270.4404
  10   2.0000      -9.937519      -270.4136
  11   2.0000      -9.937517      -270.4136
  12   2.0000      -9.937515      -270.4135
  13   2.0000      -9.937515      -270.4135
  14   2.0000      -9.177106      -249.7218
  15   2.0000      -9.177102      -249.7217
  16   2.0000      -7.010091      -190.7543
  17   2.0000      -7.010087      -190.7542
  18   2.0000      -6.999105      -190.4553
  19   2.0000      -6.999101      -190.4552
  20   2.0000      -6.998495      -190.4387
  21   2.0000      -6.998491      -190.4386
  22   2.0000      -0.815366       -22.1872
  23   2.0000      -0.810433       -22.0530
  24   2.0000      -0.774329       -21.0706
  25   2.0000      -0.752448       -20.4752
  26   2.0000      -0.689206       -18.7543
  27   2.0000      -0.686139       -18.6708
  28   2.0000      -0.686136       -18.6707
  29   2.0000      -0.639527       -17.4024
  30   2.0000      -0.559831       -15.2338
  31   2.0000      -0.559823       -15.2336
  32   2.0000      -0.553317       -15.0565
  33   2.0000      -0.523895       -14.2559
  34   2.0000      -0.480713       -13.0809
  35   2.0000      -0.445321       -12.1178
  36   2.0000      -0.424547       -11.5525
  37   2.0000      -0.424546       -11.5525
  38   2.0000      -0.417679       -11.3656
  39   2.0000      -0.404600       -11.0097
  40   2.0000      -0.384109       -10.4522
  41   2.0000      -0.384103       -10.4520
  42   2.0000      -0.382895       -10.4191
  43   2.0000      -0.352017        -9.5789
  44   2.0000      -0.352015        -9.5788
  45   2.0000      -0.347543        -9.4571
  46   2.0000      -0.318646        -8.6708
  47   2.0000      -0.318639        -8.6706
  48   2.0000      -0.306064        -8.3284
  49   2.0000      -0.288722        -7.8565
  50   2.0000      -0.288718        -7.8564
  51   2.0000      -0.265410        -7.2222
  52   2.0000      -0.265410        -7.2222
  53   2.0000      -0.238334        -6.4854
  54   2.0000      -0.233303        -6.3485
  55   2.0000      -0.214024        -5.8239
  56   2.0000      -0.214022        -5.8238
  57   0.0000      -0.052060        -1.4166
  58   0.0000      -0.040537        -1.1031
  59   0.0000      -0.040537        -1.1031
  60   0.0000      -0.034376        -0.9354
  61   0.0000       0.004723         0.1285

MULLIKEN ATOMIC CHARGES
-----------------------
   0 C :    0.154917
   1 C :    0.066288
   2 C :    0.023057
   3 C :    0.066288
   4 C :    0.154917
   5 C :   -0.121366
   6 H :   -0.056844
   7 H :   -0.072624
   8 H :   -0.072624
   9 H :   -0.056844
  10 C :    0.023002
  11 C :    0.066348
  12 C :    0.066286
  13 C :    0.154932
  14 H :   -0.072617
  15 C :    0.154953
  16 H :   -0.072627
  17 C :   -0.121416
  18 H :   -0.056845
  19 H :   -0.056843
  20 Cl:   -0.085162
  21 Cl:   -0.085175
Sum of atomic charges:    0.0000000

LOEWDIN ATOMIC CHARGES
----------------------
   0 C :   -0.027230
   1 C :   -0.006878
   2 C :   -0.018775
   3 C :   -0.006878
   4 C :   -0.027230
   5 C :   -0.144059
   6 H :    0.025662
   7 H :    0.024553
   8 H :    0.024553
   9 H :    0.025662
  10 C :   -0.018762
  11 C :   -0.006870
  12 C :   -0.006887
  13 C :   -0.027233
  14 H :    0.024550
  15 C :   -0.027232
  16 H :    0.024556
  17 C :   -0.144034
  18 H :    0.025661
  19 H :    0.025662
  20 Cl:    0.130619
  21 Cl:    0.130592

  Mayer bond orders larger than 0.100000
B(  0-C ,  1-C ) :   1.4383 B(  0-C ,  5-C ) :   1.4044 B(  0-C ,  6-H ) :   0.9162
B(  1-C ,  2-C ) :   1.4445 B(  1-C ,  7-H ) :   0.9206 B(  2-C ,  3-C ) :   1.4445
B(  2-C , 10-C ) :   0.9396 B(  3-C ,  4-C ) :   1.4383 B(  3-C ,  8-H ) :   0.9206
B(  4-C ,  5-C ) :   1.4044 B(  4-C ,  9-H ) :   0.9162 B(  5-C , 20-Cl) :   1.0245
B( 10-C , 11-C ) :   1.4444 B( 10-C , 12-C ) :   1.4447 B( 11-C , 13-C ) :   1.4383
B( 11-C , 14-H ) :   0.9206 B( 12-C , 15-C ) :   1.4381 B( 12-C , 16-H ) :   0.9206
B( 13-C , 17-C ) :   1.4044 B( 13-C , 18-H ) :   0.9162 B( 15-C , 17-C ) :   1.4046
B( 15-C , 19-H ) :   0.9162 B( 17-C , 21-Cl) :   1.0244

FINAL SINGLE POINT ENERGY     -1382.313798439962

DIPOLE MOMENT
-------------
                                X             Y             Z
Electronic contribution:     -0.00019      -0.00000       0.00009
Nuclear contribution   :      0.00013       0.00000      -0.00010
                        -----------------------------------------
Total Dipole Moment    :     -0.00006      -0.00000      -0.00002
                        -----------------------------------------
Magnitude (a.u.)       :      0.00007
Magnitude (Debye)      :      0.00017

Rotational constants in cm-1:     0.096140     0.005779     0.005779
Rotational constants in MHz :  2882.207816   173.250355   173.250260

                             ****ORCA TERMINATED NORMALLY****
TOTAL RUN TIME: 0 days 0 hours 0 minutes 58 seconds 487 msec
