                         Program Version 5.0.0 -  RELEASE  -
|  1> ! RKS B3LYP/G cc-pVDZ NoRI pal8
|  2>
|  3> *xyz 0 1
|  4>   C   -2.58160084178652      0.85828318402722      0.00080156853200
|  5>   C   -1.19423075211164      0.86536269424988      0.00098054343823
|  6>   C   -0.48184821662044      2.06241189554032      0.00026969425476
|  7>   C   -1.19416423453283      3.25950055784776     -0.00062846767782
|  8>   C   -2.58153392669185      3.26665691565461     -0.00081697160061
|  9>   C   -3.26678503079028      2.06248916662553      0.00011048883372
| 10>   H   -3.12770213250513     -0.07395399173453      0.00130680306569
| 11>   H   -0.65977525765669     -0.07535746059244      0.00163025822144
| 12>   H   -0.65965646486742      4.20019103552288     -0.00124317258025
| 13>   H   -3.12758341376550      4.19892427265791     -0.00156478051965
| 14>   C   1.01725661812022      2.06237059889130      0.00078164411047
| 15>   C   1.72979440054537      2.06154569389869     -1.19627740111421
| 16>   C   1.72939598080617      2.06315592590829      1.19791401450705
| 17>   C   3.11712542600413      2.06150240870885     -1.20321779640295
| 18>   H   1.19530943085168      2.06092784488391     -2.13697707431363
| 19>   C   3.11678391264014      2.06312227056329      1.20519298930278
| 20>   H   1.19468583944535      2.06380338066680      2.13849130201270
| 21>   C   3.80213032469577      2.06229337795585      0.00112229842861
| 22>   H   3.66351142389813      2.06086028564820     -2.13528741294019
| 23>   H   3.66287659702490      2.06373408667386      2.13743659617327
| 24>   Cl  -5.00747133311841      2.06253716373157     -0.00043793949156
| 25>   Cl  5.54284890041484      2.06224511267023      0.00136880576014
| 26> **                         ****END OF INPUT****

CARTESIAN COORDINATES (ANGSTROEM)
---------------------------------
  C     -2.581601    0.858283    0.000802
  C     -1.194231    0.865363    0.000981
  C     -0.481848    2.062412    0.000270
  C     -1.194164    3.259501   -0.000628
  C     -2.581534    3.266657   -0.000817
  C     -3.266785    2.062489    0.000110
  H     -3.127702   -0.073954    0.001307
  H     -0.659775   -0.075357    0.001630
  H     -0.659656    4.200191   -0.001243
  H     -3.127583    4.198924   -0.001565
  C      1.017257    2.062371    0.000782
  C      1.729794    2.061546   -1.196277
  C      1.729396    2.063156    1.197914
  C      3.117125    2.061502   -1.203218
  H      1.195309    2.060928   -2.136977
  C      3.116784    2.063122    1.205193
  H      1.194686    2.063803    2.138491
  C      3.802130    2.062293    0.001122
  H      3.663511    2.060860   -2.135287
  H      3.662877    2.063734    2.137437
  Cl    -5.007471    2.062537   -0.000438
  Cl     5.542849    2.062245    0.001369

 Total Charge           Charge          ....    0
 Multiplicity           Mult            ....    1
 Number of Electrons    NEL             ....  114
 Basis Dimension        Dim             ....  244

ORBITAL ENERGIES
----------------

  NO   OCC          E(Eh)            E(eV)
   0   2.0000    -101.546979     -2763.2338
   1   2.0000    -101.546976     -2763.2337
   2   2.0000     -10.252911      -278.9959
   3   2.0000     -10.252907      -278.9958
   4   2.0000     -10.211428      -277.8671
   5   2.0000     -10.211184      -277.8604
   6   2.0000     -10.206569      -277.7349
   7   2.0000     -10.206568      -277.7348
   8   2.0000     -10.206558      -277.7346
   9   2.0000     -10.206555      -277.7345
  10   2.0000     -10.205455      -277.7046
  11   2.0000     -10.205452      -277.7045
  12   2.0000     -10.205445      -277.7043
  13   2.0000     -10.205441      -277.7042
  14   2.0000      -9.465535      -257.5703
  15   2.0000      -9.465531      -257.5702
  16   2.0000      -7.228024      -196.6845
  17   2.0000      -7.228021      -196.6844
  18   2.0000      -7.218423      -196.4233
  19   2.0000      -7.218419      -196.4232
  20   2.0000      -7.218025      -196.4124
  21   2.0000      -7.218021      -196.4123
  22   2.0000      -0.906294       -24.6615
  23   2.0000      -0.900270       -24.4976
  24   2.0000      -0.861626       -23.4460
  25   2.0000      -0.838192       -22.8084
  26   2.0000      -0.771614       -20.9967
  27   2.0000      -0.769510       -20.9394
  28   2.0000      -0.769507       -20.9394
  29   2.0000      -0.719060       -19.5666
  30   2.0000      -0.631648       -17.1880
  31   2.0000      -0.631640       -17.1878
  32   2.0000      -0.624544       -16.9947
  33   2.0000      -0.592173       -16.1139
  34   2.0000      -0.543347       -14.7852
  35   2.0000      -0.503650       -13.7050
  36   2.0000      -0.484987       -13.1972
  37   2.0000      -0.484986       -13.1971
  38   2.0000      -0.476318       -12.9613
  39   2.0000      -0.463442       -12.6109
  40   2.0000      -0.440757       -11.9936
  41   2.0000      -0.440750       -11.9934
  42   2.0000      -0.436591       -11.8803
  43   2.0000      -0.404786       -11.0148
  44   2.0000      -0.404784       -11.0147
  45   2.0000      -0.398517       -10.8442
  46   2.0000      -0.370934       -10.0936
  47   2.0000      -0.370927       -10.0934
  48   2.0000      -0.356775        -9.7083
  49   2.0000      -0.337392        -9.1809
  50   2.0000      -0.337388        -9.1808
  51   2.0000      -0.315908        -8.5963
  52   2.0000      -0.315908        -8.5963
  53   2.0000      -0.276475        -7.5233
  54   2.0000      -0.270887        -7.3712
  55   2.0000      -0.252244        -6.8639
  56   2.0000      -0.252242        -6.8638
  57   0.0000      -0.033511        -0.9119
  58   0.0000      -0.021682        -0.5900
  59   0.0000      -0.021682        -0.5900
  60   0.0000      -0.013388        -0.3643
  61   0.0000       0.029617         0.8059

MULLIKEN ATOMIC CHARGES
-----------------------
   0 C :    0.134318
   1 C :    0.051147
   2 C :   -0.008171
   3 C :    0.051145
   4 C :    0.134318
   5 C :   -0.143336
   6 H :   -0.025046
   7 H :   -0.040847
   8 H :   -0.040847
   9 H :   -0.025046
  10 C :   -0.008223
  11 C :    0.051206
  12 C :    0.051145
  13 C :    0.134333
  14 H :   -0.040840
  15 C :    0.134354
  16 H :   -0.040848
  17 C :   -0.143386
  18 H :   -0.025046
  19 H :   -0.025044
  20 Cl:   -0.087636
  21 Cl:   -0.087649
Sum of atomic charges:   -0.0000000

LOEWDIN ATOMIC CHARGES
----------------------
   0 C :   -0.029862
   1 C :   -0.009464
   2 C :   -0.021563
   3 C :   -0.009464
   4 C :   -0.029862
   5 C :   -0.143344
   6 H :    0.030697
   7 H :    0.029484
   8 H :    0.029484
   9 H :    0.030697
  10 C :   -0.021551
  11 C :   -0.009455
  12 C :   -0.009472
  13 C :   -0.029865
  14 H :    0.029481
  15 C :   -0.029865
  16 H :    0.029486
  17 C :   -0.143319
  18 H :    0.030696
  19 H :    0.030698
  20 Cl:    0.123195
  21 Cl:    0.123168

  Mayer bond orders larger than 0.100000
B(  0-C ,  1-C ) :   1.4463 B(  0-C ,  5-C ) :   1.4015 B(  0-C ,  6-H ) :   0.9312
B(  1-C ,  2-C ) :   1.4443 B(  1-C ,  7-H ) :   0.9355 B(  2-C ,  3-C ) :   1.4443
B(  2-C , 10-C ) :   0.9707 B(  3-C ,  4-C ) :   1.4463 B(  3-C ,  8-H ) :   0.9355
B(  4-C ,  5-C ) :   1.4015 B(  4-C ,  9-H ) :   0.9312 B(  5-C , 20-Cl) :   1.0367
B( 10-C , 11-C ) :   1.4441 B( 10-C , 12-C ) :   1.4444 B( 11-C , 13-C ) :   1.4464
B( 11-C , 14-H ) :   0.9355 B( 12-C , 15-C ) :   1.4461 B( 12-C , 16-H ) :   0.9355
B( 13-C , 17-C ) :   1.4014 B( 13-C , 18-H ) :   0.9312 B( 15-C , 17-C ) :   1.4016
B( 15-C , 19-H ) :   0.9312 B( 17-C , 21-Cl) :   1.0367

FINAL SINGLE POINT ENERGY     -1382.563148061521

DIPOLE MOMENT
-------------
                                X             Y             Z
Electronic contribution:     -0.00019      -0.00000       0.00008
Nuclear contribution   :      0.00013       0.00000      -0.00010
                        -----------------------------------------
Total Dipole Moment    :     -0.00007       0.00000      -0.00002
                        -----------------------------------------
Magnitude (a.u.)       :      0.00007
Magnitude (Debye)      :      0.00018

Rotational constants in cm-1:     0.096140     0.005779     0.005779
Rotational constants in MHz :  2882.207816   173.250355   173.250260

                             ****ORCA TERMINATED NORMALLY****
TOTAL RUN TIME: 0 days 0 hours 0 minutes 27 seconds 815 msec
