                         Program Version 5.0.0 -  RELEASE  -
|  1> ! RHF CCSD(T) aug-cc-pVQZ VeryTightSCF
|  2>
|  3> *xyz 0 1
|  4>  B	0.0	0.0	0.0
|  5>  H	1.8	0.0	0.0
|  6> **                         ****END OF INPUT****

CARTESIAN COORDINATES (ANGSTROEM)
---------------------------------
  B      0.000000    0.000000    0.000000
  H      1.800000    0.000000    0.000000

 Total Charge           Charge          ....    0
 Multiplicity           Mult            ....    1
 Number of Electrons    NEL             ....    6
 Basis Dimension        Dim             ....  126

ORBITAL ENERGIES
----------------

  NO   OCC          E(Eh)            E(eV)
   0   2.0000      -7.756768      -211.0724
   1   2.0000      -0.561461       -15.2781
   2   2.0000      -0.347270        -9.4497
   3   0.0000       0.016732         0.4553
   4   0.0000       0.016732         0.4553
   5   0.0000       0.031748         0.8639
   6   0.0000       0.050371         1.3707
   7   0.0000       0.069772         1.8986

E(0)                                       ...    -25.074379924
E(0)                                       ...    -25.074379924
E(CORR)                                    ...     -0.110523502
E(TOT)                                     ...    -25.184903426
E(CCSD(T))                                 ...    -25.188009250

MULLIKEN ATOMIC CHARGES
-----------------------
   0 B :    0.120157
   1 H :   -0.120157
Sum of atomic charges:   -0.0000000

LOEWDIN ATOMIC CHARGES
----------------------
   0 B :    0.293108
   1 H :   -0.293108

  Mayer bond orders larger than 0.100000
B(  0-B ,  1-H ) :   0.8212

FINAL SINGLE POINT ENERGY       -25.188009249660

DIPOLE MOMENT
-------------
                                X             Y             Z
Electronic contribution:     -1.79724       0.00000       0.00000
Nuclear contribution   :      1.66075       0.00000       0.00000
                        -----------------------------------------
Total Dipole Moment    :     -0.13650       0.00000       0.00000
                        -----------------------------------------
Magnitude (a.u.)       :      0.13650
Magnitude (Debye)      :      0.34695

Rotational constants in cm-1:     0.000000     5.642995     5.642995
Rotational constants in MHz :     0.000000 169172.728284 169172.728284

                             ****ORCA TERMINATED NORMALLY****
TOTAL RUN TIME: 0 days 0 hours 0 minutes 51 seconds 661 msec
