 Gaussian 16, Revision A.03,
 Gaussian 16:  ES64L-G16RevA.03 25-Dec-2016

 -----------------------------
 #p RHF/aug-cc-pVQZ CCSD(T,FC)
 -----------------------------

 --------------------------
 BH CCSD(T) at 1.6 Angstrom
 --------------------------
 Symbolic Z-matrix:
 Charge =  0 Multiplicity = 1

                         Standard orientation:
 ---------------------------------------------------------------------
 Center     Atomic      Atomic             Coordinates (Angstroms)
 Number     Number       Type             X           Y           Z
 ---------------------------------------------------------------------
      1          5           0        0.000000    0.000000    0.266667
      2          1           0        0.000000    0.000000   -1.333333
 ---------------------------------------------------------------------

 SCF Done:  E(RHF) =  -25.0998482999     A.U. after    9 cycles
 E2 =    -0.8072895692D-01 EUMP2 =    -0.25180577256867D+02
 CCSD(T)
 CCSD(T)= -0.25209234477D+02

 The electronic state is 1-SG.
 Alpha  occ. eigenvalues --   -7.73294  -0.57876  -0.35254
 Alpha virt. eigenvalues --    0.02042   0.02042   0.03266   0.04792   0.07364
 Alpha virt. eigenvalues --    0.07364   0.10169   0.13796   0.13900   0.13900
 Alpha virt. eigenvalues --    0.14427   0.14427   0.20411   0.23822   0.27050

 Mulliken charges:
               1
     1  B    0.164036
     2  H   -0.164036
 Sum of Mulliken charges =   0.00000

 Dipole moment (field-independent basis, Debye):
    X=              0.0000    Y=              0.0000    Z=             -0.4146  Tot=              0.4146
 Quadrupole moment (field-independent basis, Debye-Ang):
   XX=             -7.0835   YY=             -7.0835   ZZ=            -11.4831
   XY=              0.0000   XZ=              0.0000   YZ=              0.0000

 SDQ=-25.2024996\CCSD=-25.2065425\CCSD(T)=-25.2092345\RMSD=1.918e-09\PG
 Normal termination of Gaussian 16 at Thu May 26 10:35:22 2022.
