                         Program Version 5.0.0 -  RELEASE  -
|  1> ! RHF CCSD(T) aug-cc-pVQZ VeryTightSCF
|  2>
|  3> *xyz 0 1
|  4>  B	0.0	0.0	0.0
|  5>  H	1.0	0.0	0.0
|  6> **                         ****END OF INPUT****

CARTESIAN COORDINATES (ANGSTROEM)
---------------------------------
  B      0.000000    0.000000    0.000000
  H      1.000000    0.000000    0.000000

 Total Charge           Charge          ....    0
 Multiplicity           Mult            ....    1
 Number of Electrons    NEL             ....    6
 Basis Dimension        Dim             ....  126

ORBITAL ENERGIES
----------------

  NO   OCC          E(Eh)            E(eV)
   0   2.0000      -7.657473      -208.3704
   1   2.0000      -0.716350       -19.4929
   2   2.0000      -0.342131        -9.3099
   3   0.0000       0.024708         0.6723
   4   0.0000       0.024708         0.6723
   5   0.0000       0.028642         0.7794
   6   0.0000       0.044884         1.2214
   7   0.0000       0.079668         2.1679

E(0)                                       ...    -25.103665468
E(0)                                       ...    -25.103665468
E(CORR)                                    ...     -0.100410476
E(TOT)                                     ...    -25.204075944
E(CCSD(T))                                 ...    -25.206185145

MULLIKEN ATOMIC CHARGES
-----------------------
   0 B :    0.041362
   1 H :   -0.041362
Sum of atomic charges:   -0.0000000

LOEWDIN ATOMIC CHARGES
----------------------
   0 B :    0.610563
   1 H :   -0.610563

  Mayer bond orders larger than 0.100000
B(  0-B ,  1-H ) :   0.8319

FINAL SINGLE POINT ENERGY       -25.206185144567

DIPOLE MOMENT
-------------
                                X             Y             Z
Electronic contribution:     -0.14749      -0.00000      -0.00000
Nuclear contribution   :      0.92264       0.00000       0.00000
                        -----------------------------------------
Total Dipole Moment    :      0.77514      -0.00000      -0.00000
                        -----------------------------------------
Magnitude (a.u.)       :      0.77514
Magnitude (Debye)      :      1.97026

Rotational constants in cm-1:     0.000000    18.283303    18.283303
Rotational constants in MHz :     0.000000 548119.639641 548119.639641

                             ****ORCA TERMINATED NORMALLY****
TOTAL RUN TIME: 0 days 0 hours 0 minutes 54 seconds 871 msec
