 Gaussian 16, Revision A.03,
 Gaussian 16:  ES64L-G16RevA.03 25-Dec-2016

 -----------------------------
 #p RHF/aug-cc-pVQZ CCSD(T,FC)
 -----------------------------

 --------------------------
 BH CCSD(T) at 2.6 Angstrom
 --------------------------
 Symbolic Z-matrix:
 Charge =  0 Multiplicity = 1

                         Standard orientation:
 ---------------------------------------------------------------------
 Center     Atomic      Atomic             Coordinates (Angstroms)
 Number     Number       Type             X           Y           Z
 ---------------------------------------------------------------------
      1          5           0        0.000000    0.000000    0.433333
      2          1           0        0.000000    0.000000   -2.166667
 ---------------------------------------------------------------------

 SCF Done:  E(RHF) =  -24.9866057675     A.U. after    9 cycles
 E2 =    -0.8978183946D-01 EUMP2 =    -0.25076387606953D+02
 CCSD(T)
 CCSD(T)= -0.25126035605D+02

 The electronic state is 1-SG.
 Alpha  occ. eigenvalues --   -7.83191  -0.57389  -0.29683
 Alpha virt. eigenvalues --   -0.00792  -0.00792   0.00531   0.04157   0.05586
 Alpha virt. eigenvalues --    0.05586   0.06906   0.08617   0.13573   0.13573
 Alpha virt. eigenvalues --    0.13881   0.13881   0.17487   0.26089   0.26089

 Mulliken charges:
               1
     1  B    0.243102
     2  H   -0.243102
 Sum of Mulliken charges =  -0.00000

 Dipole moment (field-independent basis, Debye):
    X=              0.0000    Y=              0.0000    Z=              3.7590  Tot=              3.7590
 Quadrupole moment (field-independent basis, Debye-Ang):
   XX=             -8.2051   YY=             -8.2051   ZZ=            -16.1969
   XY=              0.0000   XZ=              0.0000   YZ=              0.0000

 4SDQ=-25.1093537\CCSD=-25.1188514\CCSD(T)=-25.1260356\RMSD=5.738e-09\P
 Normal termination of Gaussian 16 at Thu May 26 10:32:25 2022.
