 Gaussian 16, Revision A.03,
 Gaussian 16:  ES64L-G16RevA.03 25-Dec-2016

 -----------------------------
 #p RHF/aug-cc-pVQZ CCSD(T,FC)
 -----------------------------

 --------------------------
 BH CCSD(T) at 2.4 Angstrom
 --------------------------
 Symbolic Z-matrix:
 Charge =  0 Multiplicity = 1

                         Standard orientation:
 ---------------------------------------------------------------------
 Center     Atomic      Atomic             Coordinates (Angstroms)
 Number     Number       Type             X           Y           Z
 ---------------------------------------------------------------------
      1          5           0        0.000000    0.000000    0.400000
      2          1           0        0.000000    0.000000   -2.000000
 ---------------------------------------------------------------------

 SCF Done:  E(RHF) =  -25.0053232856     A.U. after    9 cycles
 E2 =    -0.8767395649D-01 EUMP2 =    -0.25092997242080D+02
 CCSD(T)
 CCSD(T)= -0.25136757493D+02

 The electronic state is 1-SG.
 Alpha  occ. eigenvalues --   -7.81644  -0.56559  -0.30987
 Alpha virt. eigenvalues --   -0.00097  -0.00097   0.01710   0.04901   0.05872
 Alpha virt. eigenvalues --    0.05872   0.06945   0.08792   0.13789   0.13789
 Alpha virt. eigenvalues --    0.13970   0.13970   0.17993   0.26356   0.26535

 Mulliken charges:
               1
     1  B    0.214707
     2  H   -0.214707
 Sum of Mulliken charges =  -0.00000

 Dipole moment (field-independent basis, Debye):
    X=              0.0000    Y=              0.0000    Z=              2.9709  Tot=              2.9709
 Quadrupole moment (field-independent basis, Debye-Ang):
   XX=             -7.9917   YY=             -7.9917   ZZ=            -14.9134
   XY=              0.0000   XZ=              0.0000   YZ=              0.0000

 4SDQ=-25.1233304\CCSD=-25.1311491\CCSD(T)=-25.1367575\RMSD=6.447e-09\P
 Normal termination of Gaussian 16 at Thu May 26 10:32:24 2022.
