 Gaussian 16, Revision A.03,
 Gaussian 16:  ES64L-G16RevA.03 25-Dec-2016

 -----------------------------
 #p RHF/aug-cc-pVQZ CCSD(T,FC)
 -----------------------------

 --------------------------
 BH CCSD(T) at 2.2 Angstrom
 --------------------------
 Symbolic Z-matrix:
 Charge =  0 Multiplicity = 1

                         Standard orientation:
 ---------------------------------------------------------------------
 Center     Atomic      Atomic             Coordinates (Angstroms)
 Number     Number       Type             X           Y           Z
 ---------------------------------------------------------------------
      1          5           0        0.000000    0.000000    0.366667
      2          1           0        0.000000    0.000000   -1.833333
 ---------------------------------------------------------------------

 SCF Done:  E(RHF) =  -25.0262530024     A.U. after    9 cycles
 E2 =    -0.8574908330D-01 EUMP2 =    -0.25112002085707D+02
 CCSD(T)
 CCSD(T)= -0.25150824632D+02

 The electronic state is 1-SG.
 Alpha  occ. eigenvalues --   -7.79872  -0.55891  -0.32362
 Alpha virt. eigenvalues --    0.00573   0.00573   0.02485   0.05390   0.06203
 Alpha virt. eigenvalues --    0.06203   0.07842   0.09062   0.13991   0.13991
 Alpha virt. eigenvalues --    0.14027   0.14027   0.18651   0.25289   0.26967

 Mulliken charges:
               1
     1  B    0.193125
     2  H   -0.193125
 Sum of Mulliken charges =   0.00000

 Dipole moment (field-independent basis, Debye):
    X=              0.0000    Y=              0.0000    Z=              2.1437  Tot=              2.1437
 Quadrupole moment (field-independent basis, Debye-Ang):
   XX=             -7.7643   YY=             -7.7643   ZZ=            -13.7982
   XY=              0.0000   XZ=              0.0000   YZ=              0.0000

 DQ=-25.139926\CCSD=-25.1463397\CCSD(T)=-25.1508246\RMSD=5.280e-09\PG=C
 Normal termination of Gaussian 16 at Thu May 26 10:35:16 2022.
