 Gaussian 16, Revision A.03,
 Gaussian 16:  ES64L-G16RevA.03 25-Dec-2016

 -----------------------------
 #p RHF/aug-cc-pVQZ CCSD(T,FC)
 -----------------------------

 --------------------------
 BH CCSD(T) at 3.2 Angstrom
 --------------------------
 Symbolic Z-matrix:
 Charge =  0 Multiplicity = 1

                         Standard orientation:
 ---------------------------------------------------------------------
 Center     Atomic      Atomic             Coordinates (Angstroms)
 Number     Number       Type             X           Y           Z
 ---------------------------------------------------------------------
      1          5           0        0.000000    0.000000    0.533333
      2          1           0        0.000000    0.000000   -2.666667
 ---------------------------------------------------------------------

 SCF Done:  E(RHF) =  -24.9421235964     A.U. after   10 cycles
 E2 =    -0.9780067614D-01 EUMP2 =    -0.25039924272515D+02
 CCSD(T)
 CCSD(T)= -0.25112784534D+02

 The electronic state is 1-SG.
 Alpha  occ. eigenvalues --   -7.86580  -0.59800  -0.26520
 Alpha virt. eigenvalues --   -0.03419  -0.02712  -0.02712   0.03053   0.04934
 Alpha virt. eigenvalues --    0.04934   0.06963   0.08788   0.12895   0.12895
 Alpha virt. eigenvalues --    0.13489   0.13489   0.16588   0.25047   0.25047

 Mulliken charges:
               1
     1  B    0.331019
     2  H   -0.331019
 Sum of Mulliken charges =  -0.00000

 Dipole moment (field-independent basis, Debye):
    X=              0.0000    Y=              0.0000    Z=              5.8613  Tot=              5.8613
 Quadrupole moment (field-independent basis, Debye-Ang):
   XX=             -8.7269   YY=             -8.7269   ZZ=            -20.9762
   XY=              0.0000   XZ=              0.0000   YZ=              0.0000

 DQ=-25.0827852\CCSD=-25.0969267\CCSD(T)=-25.1127845\RMSD=7.162e-09\PG=
 Normal termination of Gaussian 16 at Thu May 26 10:46:13 2022.
