                         Program Version 5.0.0 -  RELEASE  -
|  1> ! RHF CCSD(T) aug-cc-pVQZ VeryTightSCF
|  2>
|  3> *xyz 0 1
|  4>  B	0.0	0.0	0.0
|  5>  H	3.0	0.0	0.0
|  6> **                         ****END OF INPUT****

CARTESIAN COORDINATES (ANGSTROEM)
---------------------------------
  B      0.000000    0.000000    0.000000
  H      3.000000    0.000000    0.000000

 Total Charge           Charge          ....    0
 Multiplicity           Mult            ....    1
 Number of Electrons    NEL             ....    6
 Basis Dimension        Dim             ....  126

ORBITAL ENERGIES
----------------

  NO   OCC          E(Eh)            E(eV)
   0   2.0000      -7.856440      -213.7846
   1   2.0000      -0.590609       -16.0713
   2   2.0000      -0.274468        -7.4686
   3   0.0000      -0.021904        -0.5960
   4   0.0000      -0.021209        -0.5771
   5   0.0000      -0.021209        -0.5771
   6   0.0000       0.033090         0.9004
   7   0.0000       0.051232         1.3941

E(0)                                       ...    -24.955195207
E(0)                                       ...    -24.955195207
E(CORR)                                    ...     -0.146908428
E(TOT)                                     ...    -25.102103635
E(CCSD(T))                                 ...    -25.114345479

MULLIKEN ATOMIC CHARGES
-----------------------
   0 B :   -0.092302
   1 H :    0.092302
Sum of atomic charges:    0.0000000

LOEWDIN ATOMIC CHARGES
----------------------
   0 B :   -0.061591
   1 H :    0.061591

FINAL SINGLE POINT ENERGY       -25.114345479217

DIPOLE MOMENT
-------------
                                X             Y             Z
Electronic contribution:     -2.25540       0.00000      -0.00000
Nuclear contribution   :      2.76791       0.00000       0.00000
                        -----------------------------------------
Total Dipole Moment    :      0.51251       0.00000      -0.00000
                        -----------------------------------------
Magnitude (a.u.)       :      0.51251
Magnitude (Debye)      :      1.30269

Rotational constants in cm-1:     0.000000     2.031478     2.031478
Rotational constants in MHz :     0.000000 60902.182182 60902.182182

                             ****ORCA TERMINATED NORMALLY****
TOTAL RUN TIME: 0 days 0 hours 0 minutes 48 seconds 455 msec
