                         Program Version 5.0.0 -  RELEASE  -
|  1> ! RHF CCSD(T) aug-cc-pVQZ VeryTightSCF
|  2>
|  3> *xyz 0 1
|  4>  B	0.0	0.0	0.0
|  5>  H	3.2	0.0	0.0
|  6> **                         ****END OF INPUT****

CARTESIAN COORDINATES (ANGSTROEM)
---------------------------------
  B      0.000000    0.000000    0.000000
  H      3.200000    0.000000    0.000000

 Total Charge           Charge          ....    0
 Multiplicity           Mult            ....    1
 Number of Electrons    NEL             ....    6
 Basis Dimension        Dim             ....  126

ORBITAL ENERGIES
----------------

  NO   OCC          E(Eh)            E(eV)
   0   2.0000      -7.865800      -214.0393
   1   2.0000      -0.597997       -16.2723
   2   2.0000      -0.265200        -7.2165
   3   0.0000      -0.034187        -0.9303
   4   0.0000      -0.027118        -0.7379
   5   0.0000      -0.027118        -0.7379
   6   0.0000       0.030527         0.8307
   7   0.0000       0.049336         1.3425

E(0)                                       ...    -24.942123766
E(0)                                       ...    -24.942123766
E(CORR)                                    ...     -0.154803485
E(TOT)                                     ...    -25.096927251
E(CCSD(T))                                 ...    -25.112785295

MULLIKEN ATOMIC CHARGES
-----------------------
   0 B :   -0.177241
   1 H :    0.177241
Sum of atomic charges:    0.0000000

LOEWDIN ATOMIC CHARGES
----------------------
   0 B :   -0.146001
   1 H :    0.146001

FINAL SINGLE POINT ENERGY       -25.112785295447

DIPOLE MOMENT
-------------
                                X             Y             Z
Electronic contribution:     -1.82268      -0.00000      -0.00000
Nuclear contribution   :      2.95244       0.00000       0.00000
                        -----------------------------------------
Total Dipole Moment    :      1.12976      -0.00000      -0.00000
                        -----------------------------------------
Magnitude (a.u.)       :      1.12976
Magnitude (Debye)      :      2.87162

Rotational constants in cm-1:     0.000000     1.785479     1.785479
Rotational constants in MHz :     0.000000 53527.308559 53527.308559

                             ****ORCA TERMINATED NORMALLY****
TOTAL RUN TIME: 0 days 0 hours 0 minutes 48 seconds 906 msec
