 Gaussian 16, Revision A.03,
 Gaussian 16:  ES64L-G16RevA.03 25-Dec-2016

 -----------------------------
 #p RHF/aug-cc-pVQZ CCSD(T,FC)
 -----------------------------

 --------------------------
 BH CCSD(T) at 4.2 Angstrom
 --------------------------
 Symbolic Z-matrix:
 Charge =  0 Multiplicity = 1

                         Standard orientation:
 ---------------------------------------------------------------------
 Center     Atomic      Atomic             Coordinates (Angstroms)
 Number     Number       Type             X           Y           Z
 ---------------------------------------------------------------------
      1          5           0        0.000000    0.000000    0.700000
      2          1           0        0.000000    0.000000   -3.500000
 ---------------------------------------------------------------------

 SCF Done:  E(RHF) =  -24.8961719555     A.U. after   17 cycles
 E2 =    -0.1189505970D+00 EUMP2 =    -0.25015122552414D+02
 CCSD(T)
 CCSD(T)= -0.25125271217D+02

 The electronic state is 1-SG.
 Alpha  occ. eigenvalues --   -7.89122  -0.62189  -0.23313
 Alpha virt. eigenvalues --   -0.07702  -0.04727  -0.04727   0.02287   0.04246
 Alpha virt. eigenvalues --    0.04246   0.06201   0.09752   0.11904   0.11904
 Alpha virt. eigenvalues --    0.12701   0.12701   0.15481   0.24078   0.24209

 Mulliken charges:
               1
     1  B    0.392971
     2  H   -0.392971
 Sum of Mulliken charges =  -0.00000

 Dipole moment (field-independent basis, Debye):
    X=              0.0000    Y=              0.0000    Z=              8.5668  Tot=              8.5668
 Quadrupole moment (field-independent basis, Debye-Ang):
   XX=             -9.1902   YY=             -9.1902   ZZ=            -31.4664
   XY=              0.0000   XZ=              0.0000   YZ=              0.0000

 DQ=-25.0876406\CCSD=-25.0872989\CCSD(T)=-25.1252712\RMSD=2.428e-09\PG=
 Normal termination of Gaussian 16 at Thu May 26 10:35:52 2022.
