                         Program Version 5.0.0 -  RELEASE  -
|  1> ! RHF CCSD(T) aug-cc-pVQZ VeryTightSCF
|  2>
|  3> *xyz 0 1
|  4>  B	0.0	0.0	0.0
|  5>  H	4.0	0.0	0.0
|  6> **                         ****END OF INPUT****

CARTESIAN COORDINATES (ANGSTROEM)
---------------------------------
  B      0.000000    0.000000    0.000000
  H      4.000000    0.000000    0.000000

 Total Charge           Charge          ....    0
 Multiplicity           Mult            ....    1
 Number of Electrons    NEL             ....    6
 Basis Dimension        Dim             ....  126

ORBITAL ENERGIES
----------------

  NO   OCC          E(Eh)            E(eV)
   0   2.0000      -7.888348      -214.6529
   1   2.0000      -0.618687       -16.8353
   2   2.0000      -0.238059        -6.4779
   3   0.0000      -0.070533        -1.9193
   4   0.0000      -0.044413        -1.2085
   5   0.0000      -0.044413        -1.2085
   6   0.0000       0.023968         0.6522
   7   0.0000       0.043570         1.1856

E(0)                                       ...    -24.903270145
E(0)                                       ...    -24.903270145
E(CORR)                                    ...     -0.184770239
E(TOT)                                     ...    -25.088040384
E(CCSD(T))                                 ...    -25.121938782

MULLIKEN ATOMIC CHARGES
-----------------------
   0 B :   -0.554606
   1 H :    0.554606
Sum of atomic charges:   -0.0000000

LOEWDIN ATOMIC CHARGES
----------------------
   0 B :   -0.508258
   1 H :    0.508258

  Mayer bond orders larger than 0.100000
B(  0-B ,  1-H ) :   0.9640

FINAL SINGLE POINT ENERGY       -25.121938782366

DIPOLE MOMENT
-------------
                                X             Y             Z
Electronic contribution:      0.80678      -0.00000      -0.00000
Nuclear contribution   :      3.69055       0.00000       0.00000
                        -----------------------------------------
Total Dipole Moment    :      4.49733      -0.00000      -0.00000
                        -----------------------------------------
Magnitude (a.u.)       :      4.49733
Magnitude (Debye)      :     11.43129

Rotational constants in cm-1:     0.000000     1.142706     1.142706
Rotational constants in MHz :     0.000000 34257.477478 34257.477478

                             ****ORCA TERMINATED NORMALLY****
TOTAL RUN TIME: 0 days 0 hours 0 minutes 47 seconds 510 msec
