                         Program Version 5.0.0 -  RELEASE  -
|  1> ! RHF CCSD(T) aug-cc-pVQZ VeryTightSCF
|  2>
|  3> *xyz 0 1
|  4>  B	0.0	0.0	0.0
|  5>  H	4.4	0.0	0.0
|  6> **                         ****END OF INPUT****

CARTESIAN COORDINATES (ANGSTROEM)
---------------------------------
  B      0.000000    0.000000    0.000000
  H      4.400000    0.000000    0.000000

 Total Charge           Charge          ....    0
 Multiplicity           Mult            ....    1
 Number of Electrons    NEL             ....    6
 Basis Dimension        Dim             ....  126

ORBITAL ENERGIES
----------------

  NO   OCC          E(Eh)            E(eV)
   0   2.0000      -7.893333      -214.7885
   1   2.0000      -0.624478       -16.9929
   2   2.0000      -0.228734        -6.2242
   3   0.0000      -0.082715        -2.2508
   4   0.0000      -0.049648        -1.3510
   5   0.0000      -0.049648        -1.3510
   6   0.0000       0.021914         0.5963
   7   0.0000       0.041454         1.1280

E(0)                                       ...    -24.889875862
E(0)                                       ...    -24.889875862
E(CORR)                                    ...     -0.196931731
E(TOT)                                     ...    -25.086807592
E(CCSD(T))                                 ...    -25.128303980

MULLIKEN ATOMIC CHARGES
-----------------------
   0 B :   -0.696393
   1 H :    0.696393
Sum of atomic charges:   -0.0000000

LOEWDIN ATOMIC CHARGES
----------------------
   0 B :   -0.648544
   1 H :    0.648544

  Mayer bond orders larger than 0.100000
B(  0-B ,  1-H ) :   2.0889

FINAL SINGLE POINT ENERGY       -25.128303980133

DIPOLE MOMENT
-------------
                                X             Y             Z
Electronic contribution:      2.07508       0.00000       0.00000
Nuclear contribution   :      4.05960       0.00000       0.00000
                        -----------------------------------------
Total Dipole Moment    :      6.13468       0.00000       0.00000
                        -----------------------------------------
Magnitude (a.u.)       :      6.13468
Magnitude (Debye)      :     15.59312

Rotational constants in cm-1:     0.000000     0.944385     0.944385
Rotational constants in MHz :     0.000000 28311.964858 28311.964858

                             ****ORCA TERMINATED NORMALLY****
TOTAL RUN TIME: 0 days 0 hours 0 minutes 44 seconds 829 msec
