 Gaussian 16, Revision A.03,
 Gaussian 16:  ES64L-G16RevA.03 25-Dec-2016

 -----------------------------
 #p RHF/aug-cc-pVQZ CCSD(T,FC)
 -----------------------------

 --------------------------
 BH CCSD(T) at 4.6 Angstrom
 --------------------------
 Symbolic Z-matrix:
 Charge =  0 Multiplicity = 1

                         Standard orientation:
 ---------------------------------------------------------------------
 Center     Atomic      Atomic             Coordinates (Angstroms)
 Number     Number       Type             X           Y           Z
 ---------------------------------------------------------------------
      1          5           0        0.000000    0.000000    0.766667
      2          1           0        0.000000    0.000000   -3.833333
 ---------------------------------------------------------------------

 SCF Done:  E(RHF) =  -24.8842824161     A.U. after   16 cycles
 E2 =    -0.1301949662D+00 EUMP2 =    -0.25014477382275D+02
 CCSD(T)
 CCSD(T)= -0.25130904072D+02

 The electronic state is 1-SG.
 Alpha  occ. eigenvalues --   -7.89482  -0.62654  -0.22480
 Alpha virt. eigenvalues --   -0.08773  -0.05161  -0.05161   0.02108   0.04054
 Alpha virt. eigenvalues --    0.04054   0.05868   0.10043   0.11592   0.11592
 Alpha virt. eigenvalues --    0.12380   0.12380   0.14899   0.23209   0.24100

 Mulliken charges:
               1
     1  B    0.403062
     2  H   -0.403062
 Sum of Mulliken charges =  -0.00000

 Dipole moment (field-independent basis, Debye):
    X=              0.0000    Y=              0.0000    Z=              9.4375  Tot=              9.4375
 Quadrupole moment (field-independent basis, Debye-Ang):
   XX=             -9.2680   YY=             -9.2680   ZZ=            -36.3685
   XY=              0.0000   XZ=              0.0000   YZ=              0.0000

 SDQ=-25.1064975\CCSD=-25.0864812\CCSD(T)=-25.1309041\RMSD=8.876e-09\PG
 Normal termination of Gaussian 16 at Thu May 26 10:35:58 2022.
