                         Program Version 5.0.0 -  RELEASE  -
|  1> ! RHF CCSD(T) aug-cc-pVQZ VeryTightSCF
|  2>
|  3> *xyz 0 1
|  4>  B	0.0	0.0	0.0
|  5>  H	4.6	0.0	0.0
|  6> **                         ****END OF INPUT****

CARTESIAN COORDINATES (ANGSTROEM)
---------------------------------
  B      0.000000    0.000000    0.000000
  H      4.600000    0.000000    0.000000

 Total Charge           Charge          ....    0
 Multiplicity           Mult            ....    1
 Number of Electrons    NEL             ....    6
 Basis Dimension        Dim             ....  126

ORBITAL ENERGIES
----------------

  NO   OCC          E(Eh)            E(eV)
   0   2.0000      -7.894825      -214.8291
   1   2.0000      -0.626543       -17.0491
   2   2.0000      -0.224803        -6.1172
   3   0.0000      -0.087733        -2.3873
   4   0.0000      -0.051615        -1.4045
   5   0.0000      -0.051615        -1.4045
   6   0.0000       0.021081         0.5737
   7   0.0000       0.040535         1.1030

E(0)                                       ...    -24.884282589
E(0)                                       ...    -24.884282589
E(CORR)                                    ...     -0.202198713
E(TOT)                                     ...    -25.086481302
E(CCSD(T))                                 ...    -25.130904158

MULLIKEN ATOMIC CHARGES
-----------------------
   0 B :   -0.748237
   1 H :    0.748237
Sum of atomic charges:    0.0000000

LOEWDIN ATOMIC CHARGES
----------------------
   0 B :   -0.701495
   1 H :    0.701495

  Mayer bond orders larger than 0.100000
B(  0-B ,  1-H ) :   2.6348

FINAL SINGLE POINT ENERGY       -25.130904157967

DIPOLE MOMENT
-------------
                                X             Y             Z
Electronic contribution:      2.59836       0.00000       0.00000
Nuclear contribution   :      4.24413       0.00000       0.00000
                        -----------------------------------------
Total Dipole Moment    :      6.84249       0.00000       0.00000
                        -----------------------------------------
Magnitude (a.u.)       :      6.84249
Magnitude (Debye)      :     17.39223

Rotational constants in cm-1:     0.000000     0.864050     0.864050
Rotational constants in MHz :     0.000000 25903.574652 25903.574652

                             ****ORCA TERMINATED NORMALLY****
TOTAL RUN TIME: 0 days 0 hours 0 minutes 44 seconds 780 msec
