                         Program Version 5.0.0 -  RELEASE  -
|  1> ! RHF CCSD(T) aug-cc-pVQZ VeryTightSCF
|  2>
|  3> *xyz 0 1
|  4>  B	0.0	0.0	0.0
|  5>  H	4.2	0.0	0.0
|  6> **                         ****END OF INPUT****

CARTESIAN COORDINATES (ANGSTROEM)
---------------------------------
  B      0.000000    0.000000    0.000000
  H      4.200000    0.000000    0.000000

 Total Charge           Charge          ....    0
 Multiplicity           Mult            ....    1
 Number of Electrons    NEL             ....    6
 Basis Dimension        Dim             ....  126

ORBITAL ENERGIES
----------------

  NO   OCC          E(Eh)            E(eV)
   0   2.0000      -7.891222      -214.7311
   1   2.0000      -0.621889       -16.9225
   2   2.0000      -0.233128        -6.3437
   3   0.0000      -0.077016        -2.0957
   4   0.0000      -0.047269        -1.2862
   5   0.0000      -0.047269        -1.2862
   6   0.0000       0.022868         0.6223
   7   0.0000       0.042462         1.1554

E(0)                                       ...    -24.896172128
E(0)                                       ...    -24.896172128
E(CORR)                                    ...     -0.191127141
E(TOT)                                     ...    -25.087299269
E(CCSD(T))                                 ...    -25.125271697

MULLIKEN ATOMIC CHARGES
-----------------------
   0 B :   -0.631757
   1 H :    0.631757
Sum of atomic charges:   -0.0000000

LOEWDIN ATOMIC CHARGES
----------------------
   0 B :   -0.583988
   1 H :    0.583988

  Mayer bond orders larger than 0.100000
B(  0-B ,  1-H ) :   1.5155

FINAL SINGLE POINT ENERGY       -25.125271696802

DIPOLE MOMENT
-------------
                                X             Y             Z
Electronic contribution:      1.47303      -0.00000       0.00000
Nuclear contribution   :      3.87507       0.00000       0.00000
                        -----------------------------------------
Total Dipole Moment    :      5.34810      -0.00000       0.00000
                        -----------------------------------------
Magnitude (a.u.)       :      5.34810
Magnitude (Debye)      :     13.59379

Rotational constants in cm-1:     0.000000     1.036468     1.036468
Rotational constants in MHz :     0.000000 31072.541930 31072.541930

                             ****ORCA TERMINATED NORMALLY****
TOTAL RUN TIME: 0 days 0 hours 0 minutes 46 seconds 35 msec
