                         Program Version 5.0.0 -  RELEASE  -
|  1> ! RHF CCSD(T) aug-cc-pVQZ VeryTightSCF
|  2>
|  3> *xyz 0 1
|  4>  B	0.0	0.0	0.0
|  5>  H	5.8	0.0	0.0
|  6> **                         ****END OF INPUT****

CARTESIAN COORDINATES (ANGSTROEM)
---------------------------------
  B      0.000000    0.000000    0.000000
  H      5.800000    0.000000    0.000000

 Total Charge           Charge          ....    0
 Multiplicity           Mult            ....    1
 Number of Electrons    NEL             ....    6
 Basis Dimension        Dim             ....  126

ORBITAL ENERGIES
----------------

  NO   OCC          E(Eh)            E(eV)
   0   2.0000      -7.896449      -214.8733
   1   2.0000      -0.632052       -17.1990
   2   2.0000      -0.207971        -5.6592
   3   0.0000      -0.107967        -2.9379
   4   0.0000      -0.057753        -1.5715
   5   0.0000      -0.057753        -1.5715
   6   0.0000       0.017728         0.4824
   7   0.0000       0.036296         0.9877

E(0)                                       ...    -24.861274442
E(0)                                       ...    -24.861274442
E(CORR)                                    ...     -0.224614044
E(TOT)                                     ...    -25.085888486
E(CCSD(T))                                 ...    -25.137883831

MULLIKEN ATOMIC CHARGES
-----------------------
   0 B :   -0.855855
   1 H :    0.855855
Sum of atomic charges:    0.0000000

LOEWDIN ATOMIC CHARGES
----------------------
   0 B :   -0.827456
   1 H :    0.827456

  Mayer bond orders larger than 0.100000
B(  0-B ,  1-H ) :   4.4069

FINAL SINGLE POINT ENERGY       -25.137883831476

DIPOLE MOMENT
-------------
                                X             Y             Z
Electronic contribution:      4.18802       0.00000      -0.00000
Nuclear contribution   :      5.35129       0.00000       0.00000
                        -----------------------------------------
Total Dipole Moment    :      9.53931       0.00000      -0.00000
                        -----------------------------------------
Magnitude (a.u.)       :      9.53931
Magnitude (Debye)      :     24.24700

Rotational constants in cm-1:     0.000000     0.543499     0.543499
Rotational constants in MHz :     0.000000 16293.687266 16293.687266

                             ****ORCA TERMINATED NORMALLY****
TOTAL RUN TIME: 0 days 0 hours 1 minutes 25 seconds 153 msec
