                         Program Version 5.0.0 -  RELEASE  -
|  1> ! RHF CCSD(T) aug-cc-pVQZ VeryTightSCF
|  2>
|  3> *xyz 0 1
|  4>  B	0.0	0.0	0.0
|  5>  H	5.4	0.0	0.0
|  6> **                         ****END OF INPUT****

CARTESIAN COORDINATES (ANGSTROEM)
---------------------------------
  B      0.000000    0.000000    0.000000
  H      5.400000    0.000000    0.000000

 Total Charge           Charge          ....    0
 Multiplicity           Mult            ....    1
 Number of Electrons    NEL             ....    6
 Basis Dimension        Dim             ....  126

ORBITAL ENERGIES
----------------

  NO   OCC          E(Eh)            E(eV)
   0   2.0000      -7.896784      -214.8824
   1   2.0000      -0.631130       -17.1739
   2   2.0000      -0.212563        -5.7841
   3   0.0000      -0.102688        -2.7943
   4   0.0000      -0.056485        -1.5370
   5   0.0000      -0.056485        -1.5370
   6   0.0000       0.018613         0.5065
   7   0.0000       0.037529         1.0212

E(0)                                       ...    -24.867344451
E(0)                                       ...    -24.867344451
E(CORR)                                    ...     -0.218615054
E(TOT)                                     ...    -25.085959505
E(CCSD(T))                                 ...    -25.136862748

MULLIKEN ATOMIC CHARGES
-----------------------
   0 B :   -0.848584
   1 H :    0.848584
Sum of atomic charges:   -0.0000000

LOEWDIN ATOMIC CHARGES
----------------------
   0 B :   -0.813368
   1 H :    0.813368

  Mayer bond orders larger than 0.100000
B(  0-B ,  1-H ) :   4.1014

FINAL SINGLE POINT ENERGY       -25.136862747812

DIPOLE MOMENT
-------------
                                X             Y             Z
Electronic contribution:      3.90195      -0.00000       0.00000
Nuclear contribution   :      4.98224       0.00000       0.00000
                        -----------------------------------------
Total Dipole Moment    :      8.88419      -0.00000       0.00000
                        -----------------------------------------
Magnitude (a.u.)       :      8.88419
Magnitude (Debye)      :     22.58181

Rotational constants in cm-1:     0.000000     0.626999     0.626999
Rotational constants in MHz :     0.000000 18796.969809 18796.969809

                             ****ORCA TERMINATED NORMALLY****
TOTAL RUN TIME: 0 days 0 hours 1 minutes 0 seconds 546 msec
