                         Program Version 5.0.0 -  RELEASE  -
|  1> ! RHF CCSD(T) aug-cc-pVQZ VeryTightSCF
|  2>
|  3> *xyz 0 1
|  4>  B	0.0	0.0	0.0
|  5>  H	5.6	0.0	0.0
|  6> **                         ****END OF INPUT****

CARTESIAN COORDINATES (ANGSTROEM)
---------------------------------
  B      0.000000    0.000000    0.000000
  H      5.600000    0.000000    0.000000

 Total Charge           Charge          ....    0
 Multiplicity           Mult            ....    1
 Number of Electrons    NEL             ....    6
 Basis Dimension        Dim             ....  126

ORBITAL ENERGIES
----------------

  NO   OCC          E(Eh)            E(eV)
   0   2.0000      -7.896678      -214.8795
   1   2.0000      -0.631667       -17.1885
   2   2.0000      -0.210165        -5.7189
   3   0.0000      -0.105470        -2.8700
   4   0.0000      -0.057186        -1.5561
   5   0.0000      -0.057186        -1.5561
   6   0.0000       0.018149         0.4938
   7   0.0000       0.036896         1.0040

E(0)                                       ...    -24.864151116
E(0)                                       ...    -24.864151116
E(CORR)                                    ...     -0.221765660
E(TOT)                                     ...    -25.085916776
E(CCSD(T))                                 ...    -25.137485985

MULLIKEN ATOMIC CHARGES
-----------------------
   0 B :   -0.854565
   1 H :    0.854565
Sum of atomic charges:    0.0000000

LOEWDIN ATOMIC CHARGES
----------------------
   0 B :   -0.822815
   1 H :    0.822815

  Mayer bond orders larger than 0.100000
B(  0-B ,  1-H ) :   4.2825

FINAL SINGLE POINT ENERGY       -25.137485984612

DIPOLE MOMENT
-------------
                                X             Y             Z
Electronic contribution:      4.06745       0.00000       0.00000
Nuclear contribution   :      5.16677       0.00000       0.00000
                        -----------------------------------------
Total Dipole Moment    :      9.23421       0.00000       0.00000
                        -----------------------------------------
Magnitude (a.u.)       :      9.23421
Magnitude (Debye)      :     23.47150

Rotational constants in cm-1:     0.000000     0.583013     0.583013
Rotational constants in MHz :     0.000000 17478.304836 17478.304836

                             ****ORCA TERMINATED NORMALLY****
TOTAL RUN TIME: 0 days 0 hours 1 minutes 31 seconds 895 msec
