 Gaussian 16, Revision A.03,
 Gaussian 16:  ES64L-G16RevA.03 25-Dec-2016

 -----------------------------
 #p RHF/aug-cc-pVQZ CCSD(T,FC)
 -----------------------------

 --------------------------
 BH CCSD(T) at 6.0 Angstrom
 --------------------------
 Symbolic Z-matrix:
 Charge =  0 Multiplicity = 1

                         Standard orientation:
 ---------------------------------------------------------------------
 Center     Atomic      Atomic             Coordinates (Angstroms)
 Number     Number       Type             X           Y           Z
 ---------------------------------------------------------------------
      1          5           0        0.000000    0.000000    1.000000
      2          1           0        0.000000    0.000000   -5.000000
 ---------------------------------------------------------------------

 SCF Done:  E(RHF) =  -24.8586754381     A.U. after   23 cycles
 E2 =    -0.1779380857D+00 EUMP2 =    -0.25036613523710D+02
 CCSD(T)
 CCSD(T)= -0.25138108033D+02

 The electronic state is 1-SG.
 Alpha  occ. eigenvalues --   -7.89613  -0.63232  -0.20596
 Alpha virt. eigenvalues --   -0.11022  -0.05821  -0.05821   0.01735   0.03573
 Alpha virt. eigenvalues --    0.03573   0.04851   0.10456   0.10843   0.10843
 Alpha virt. eigenvalues --    0.11440   0.11440   0.12673   0.23322   0.23322

 Mulliken charges:
               1
     1  B    0.410403
     2  H   -0.410403
 Sum of Mulliken charges =  -0.00000

 Dipole moment (field-independent basis, Debye):
    X=              0.0000    Y=              0.0000    Z=             11.9866  Tot=             11.9866
 Quadrupole moment (field-independent basis, Debye-Ang):
   XX=             -9.3126   YY=             -9.3126   ZZ=            -56.1888
   XY=              0.0000   XZ=              0.0000   YZ=              0.0000

 DQ=-25.2455576\CCSD=-25.0858698\CCSD(T)=-25.138108\RMSD=9.468e-10\PG=C
 Normal termination of Gaussian 16 at Thu May 26 10:46:58 2022.
