                         Program Version 5.0.0 -  RELEASE  -
|  1> ! ROHF def2-SVP pal4 VeryTightSCF
|  2>
|  3> *xyz 0 3
|  4>  C   -0.56828011888064      0.21526016701941      0.00000000000000
|  5>  H   -0.02093310180940     -0.71582241410459      0.00000000000000
|  6>  H   -1.62855716930996      0.42096895708518      0.00000000000000
|  7> *
|  8>
|  9>                          ****END OF INPUT****

CARTESIAN COORDINATES (ANGSTROEM)
---------------------------------
  C     -0.568280    0.215260    0.000000
  H     -0.020933   -0.715822    0.000000
  H     -1.628557    0.420969    0.000000

 Total Charge           Charge          ....    0
 Multiplicity           Mult            ....    3
 Number of Electrons    NEL             ....    8
 Basis Dimension        Dim             ....   24

ORBITAL ENERGIES
----------------

  NO   OCC          E(Eh)            E(eV)
   0   2.0000     -11.247863      -306.0699
   1   2.0000      -0.840992       -22.8846
   2   2.0000      -0.598758       -16.2930
   3   1.0000      -0.472149       -12.8478
   4   1.0000      -0.405126       -11.0240
   5   0.0000       0.205178         5.5832
   6   0.0000       0.257136         6.9970
   7   0.0000       0.556242        15.1361
   8   0.0000       0.623090        16.9551
   9   0.0000       0.668661        18.1952

MULLIKEN ATOMIC CHARGES AND SPIN POPULATIONS
--------------------------------------------
   0 C :   -0.170611    1.955643
   1 H :    0.085306    0.022178
   2 H :    0.085306    0.022178
Sum of atomic charges         :    0.0000000

LOEWDIN ATOMIC CHARGES AND SPIN POPULATIONS
-------------------------------------------
   0 C :   -0.012405    1.909736
   1 H :    0.006203    0.045132
   2 H :    0.006203    0.045132

  Mayer bond orders larger than 0.100000
B(  0-C ,  1-H ) :   0.9781 B(  0-C ,  2-H ) :   0.9781

FINAL SINGLE POINT ENERGY       -38.889390582814

DIPOLE MOMENT
-------------
                                X             Y             Z
Electronic contribution:      0.28400       0.40162       0.00000
Nuclear contribution   :     -0.41206      -0.58272       0.00000
                        -----------------------------------------
Total Dipole Moment    :     -0.12806      -0.18110       0.00000
                        -----------------------------------------
Magnitude (a.u.)       :      0.22180
Magnitude (Debye)      :      0.56378

Rotational constants in cm-1:    49.491373     8.627771     7.346981
Rotational constants in MHz : 1483714.044143 258654.059176 220256.936203

                             ****ORCA TERMINATED NORMALLY****
TOTAL RUN TIME: 0 days 0 hours 0 minutes 13 seconds 149 msec
