 Gaussian 16, Revision A.03,
 Gaussian 16:  ES64L-G16RevA.03 25-Dec-2016

 ------------------------
 # RHF/aug-cc-pVTZ stable
 ------------------------

 ------------
 [Fe(H2O)6]2+
 ------------
 Symbolic Z-matrix:
 Charge =  2 Multiplicity = 1

                         Standard orientation:
 ---------------------------------------------------------------------
 Center     Atomic      Atomic             Coordinates (Angstroms)
 Number     Number       Type             X           Y           Z
 ---------------------------------------------------------------------
      1         26           0        0.010146   -0.033639    0.027691
      2          8           0        1.539344   -0.374401   -0.898502
      3          8           0        0.867758    1.400282    0.749336
      4          8           0        0.602850   -1.139176    1.346361
      5          8           0       -1.499338    0.367194    0.962139
      6          8           0       -0.840449   -1.474176   -0.689069
      7          8           0       -0.658320    0.960583   -1.342373
      8          1           0       -2.268708    0.074824    0.467984
      9          1           0       -1.548508    1.316127    1.098919
     10          1           0       -0.448150   -1.687237   -1.538955
     11          1           0       -1.770828   -1.269781   -0.808302
     12          1           0        0.060569    1.412336   -1.790388
     13          1           0       -1.276624    1.608088   -0.995908
     14          1           0        1.321268   -0.800900   -1.730453
     15          1           0        1.998620    0.450457   -1.072501
     16          1           0        1.560364    1.692654    0.152330
     17          1           0        0.239897    2.113732    0.884901
     18          1           0        1.559343   -1.082512    1.405608
     19          1           0        0.214198   -0.875614    2.183669
 ---------------------------------------------------------------------

 SCF Done:  E(RHF) =  -1718.16378225     A.U. after   17 cycles

 The electronic state is 1-A.
 Alpha  occ. eigenvalues -- -261.58048 -32.15298 -27.63252 -27.63181 -27.63121
 Alpha  occ. eigenvalues --  -20.96742 -20.96678 -20.96401 -20.96387 -20.93052
 Alpha  occ. eigenvalues --  -20.89773  -4.39446  -2.98138  -2.97953  -2.97802
 Alpha  occ. eigenvalues --   -1.79740  -1.77133  -1.76675  -1.76359  -1.73658
 Alpha  occ. eigenvalues --   -1.70427  -1.18657  -1.15627  -1.14295  -1.12632
 Alpha  occ. eigenvalues --   -1.08971  -1.08535  -1.06398  -1.03859  -1.02223
 Alpha  occ. eigenvalues --   -1.00574  -0.99659  -0.97998  -0.95186  -0.93748
 Alpha  occ. eigenvalues --   -0.93000  -0.91574  -0.89577  -0.86813  -0.79400
 Alpha  occ. eigenvalues --   -0.78100  -0.76910
 Alpha virt. eigenvalues --   -0.26638  -0.22620  -0.21249  -0.19430  -0.18532
 Alpha virt. eigenvalues --   -0.16508  -0.16216  -0.15896  -0.14619  -0.13939
 Alpha virt. eigenvalues --   -0.13134  -0.12687  -0.11798  -0.11686  -0.11431

 Mulliken charges:
               1
     1  Fe   1.718265
     2  O   -0.301201
     3  O   -0.231851
     4  O   -0.324276
     5  O   -0.329074
     6  O   -0.319621
     7  O   -0.249021
     8  H    0.204856
     9  H    0.201219
    10  H    0.171459
    11  H    0.190374
    12  H    0.129585
    13  H    0.124655
    14  H    0.197091
    15  H    0.184909
    16  H    0.140679
    17  H    0.144587
    18  H    0.184899
    19  H    0.162466
 Sum of Mulliken charges =   2.00000

 Dipole moment (field-independent basis, Debye):
    X=             -0.6014    Y=              5.4906    Z=             -3.1796  Tot=              6.3733
 Quadrupole moment (field-independent basis, Debye-Ang):
   XX=            -21.7560   YY=            -27.1350   ZZ=            -27.2817
   XY=             -0.1754   XZ=             -2.8890   YZ=              2.2230

 Normal termination of Gaussian 16 at Sat May 14 14:02:03 2022.
