 Gaussian 16, Revision A.03,
 Gaussian 16:  ES64L-G16RevA.03 25-Dec-2016

 ---------------
 #p BLYP/cc-pVDZ
 ---------------

 --------------------------------------
 3,8-dicl-dibenzene SP RKS BLYP cc-pVDZ
 --------------------------------------
 Symbolic Z-matrix:
 Charge =  0 Multiplicity = 1

                         Standard orientation:
 ---------------------------------------------------------------------
 Center     Atomic      Atomic             Coordinates (Angstroms)
 Number     Number       Type             X           Y           Z
 ---------------------------------------------------------------------
      1          6           0        2.730812   -0.022491    1.452760
      2          6           0        1.349615   -0.011465    1.322312
      3          6           0        0.746550   -0.005826    0.066646
      4          6           0        1.562496   -0.011510   -1.062343
      5          6           0        2.944960   -0.022535   -0.946075
      6          6           0        3.520366   -0.028168    0.314268
      7          1           0        3.191814   -0.026765    2.429874
      8          1           0        0.733622   -0.007147    2.211768
      9          1           0        1.113794   -0.007226   -2.046846
     10          1           0        3.571749   -0.026843   -1.826081
     11          6           0       -0.746572    0.005775   -0.066648
     12          6           0       -1.446629    1.208552   -0.129164
     13          6           0       -1.465504   -1.185565   -0.130806
     14          6           0       -2.828364    1.226701   -0.252514
     15          1           0       -0.906707    2.144903   -0.080981
     16          6           0       -2.847410   -1.181634   -0.254171
     17          1           0       -0.940500   -2.130432   -0.083921
     18          6           0       -3.520327    0.027935   -0.314265
     19          1           0       -3.365065    2.163155   -0.300443
     20          1           0       -3.398825   -2.109435   -0.303380
     21         17           0        5.254105   -0.041683    0.469042
     22         17           0       -5.254096    0.041753   -0.469041
 ---------------------------------------------------------------------

 SCF Done:  E(RB-LYP) =  -1382.31376148     A.U. after   15 cycles

 The electronic state is 1-A.
 Alpha  occ. eigenvalues -- -100.74658-100.74658  -9.98283  -9.98283  -9.94255
 Alpha  occ. eigenvalues --   -9.94241  -9.93851  -9.93851  -9.93851  -9.93851
 Alpha  occ. eigenvalues --   -9.93752  -9.93752  -9.93752  -9.93752  -9.17710
 Alpha  occ. eigenvalues --   -9.17709  -7.01008  -7.01008  -6.99910  -6.99909
 Alpha  occ. eigenvalues --   -6.99849  -6.99848  -0.81537  -0.81043  -0.77433
 Alpha  occ. eigenvalues --   -0.75245  -0.68921  -0.68614  -0.68614  -0.63953
 Alpha  occ. eigenvalues --   -0.55983  -0.55983  -0.55332  -0.52390  -0.48072
 Alpha  occ. eigenvalues --   -0.44532  -0.42455  -0.42455  -0.41768  -0.40460
 Alpha  occ. eigenvalues --   -0.38411  -0.38410  -0.38289  -0.35201  -0.35201
 Alpha  occ. eigenvalues --   -0.34754  -0.31865  -0.31864  -0.30606  -0.28872
 Alpha  occ. eigenvalues --   -0.28871  -0.26540  -0.26540  -0.23834  -0.23331
 Alpha  occ. eigenvalues --   -0.21402  -0.21402
 Alpha virt. eigenvalues --   -0.05206  -0.04053  -0.04053  -0.03438   0.00473
 Alpha virt. eigenvalues --    0.00520   0.06409   0.06578   0.07076   0.07076
 Alpha virt. eigenvalues --    0.09589   0.09972   0.09972   0.10537   0.12196

 Mulliken charges:
               1
     1  C    0.154849
     2  C    0.066080
     3  C    0.023349
     4  C    0.066097
     5  C    0.154849
     6  C   -0.121277
     7  H   -0.056814
     8  H   -0.072569
     9  H   -0.072571
    10  H   -0.056816
    11  C    0.023302
    12  C    0.066154
    13  C    0.066088
    14  C    0.154856
    15  H   -0.072562
    16  C    0.154876
    17  H   -0.072572
    18  C   -0.121310
    19  H   -0.056814
    20  H   -0.056812
    21  Cl  -0.085184
    22  Cl  -0.085200
 Sum of Mulliken charges =  -0.00000

 Dipole moment (field-independent basis, Debye):
    X=              0.0002    Y=              0.0000    Z=              0.0000  Tot=              0.0002
 Quadrupole moment (field-independent basis, Debye-Ang):
   XX=           -108.1209   YY=            -90.9172   ZZ=            -91.0526
   XY=              0.1371   XZ=             -1.5359   YZ=              0.0122

 Normal termination of Gaussian 16 at Wed May  4 13:10:55 2022.
