 Gaussian 16, Revision A.03,
 Gaussian 16:  ES64L-G16RevA.03 25-Dec-2016

 ---------------------
 # RHF/Def2TZVP stable
 ---------------------

 ------------
 [Fe(H2O)6]2+
 ------------
 Symbolic Z-matrix:
 Charge =  2 Multiplicity = 1

                         Standard orientation:
 ---------------------------------------------------------------------
 Center     Atomic      Atomic             Coordinates (Angstroms)
 Number     Number       Type             X           Y           Z
 ---------------------------------------------------------------------
      1         26           0        0.010146   -0.033639    0.027691
      2          8           0        1.539344   -0.374401   -0.898502
      3          8           0        0.867758    1.400282    0.749336
      4          8           0        0.602850   -1.139176    1.346361
      5          8           0       -1.499338    0.367194    0.962139
      6          8           0       -0.840449   -1.474176   -0.689069
      7          8           0       -0.658320    0.960583   -1.342373
      8          1           0       -2.268708    0.074824    0.467984
      9          1           0       -1.548508    1.316127    1.098919
     10          1           0       -0.448150   -1.687237   -1.538955
     11          1           0       -1.770828   -1.269781   -0.808302
     12          1           0        0.060569    1.412336   -1.790388
     13          1           0       -1.276624    1.608088   -0.995908
     14          1           0        1.321268   -0.800900   -1.730453
     15          1           0        1.998620    0.450457   -1.072501
     16          1           0        1.560364    1.692654    0.152330
     17          1           0        0.239897    2.113732    0.884901
     18          1           0        1.559343   -1.082512    1.405608
     19          1           0        0.214198   -0.875614    2.183669
 ---------------------------------------------------------------------

 SCF Done:  E(RHF) =  -1718.13354512     A.U. after   20 cycles

 The electronic state is 1-A.
 Alpha  occ. eigenvalues -- -261.59110 -32.16032 -27.64013 -27.63938 -27.63875
 Alpha  occ. eigenvalues --  -20.96929 -20.96787 -20.96465 -20.96448 -20.92983
 Alpha  occ. eigenvalues --  -20.89607  -4.39925  -2.98634  -2.98428  -2.98259
 Alpha  occ. eigenvalues --   -1.79877  -1.77259  -1.76791  -1.76467  -1.73610
 Alpha  occ. eigenvalues --   -1.70245  -1.18797  -1.15876  -1.14436  -1.12763
 Alpha  occ. eigenvalues --   -1.09048  -1.08502  -1.06586  -1.04035  -1.02377
 Alpha  occ. eigenvalues --   -1.00701  -0.99732  -0.98139  -0.95227  -0.93899
 Alpha  occ. eigenvalues --   -0.93107  -0.91657  -0.89597  -0.86745  -0.79768
 Alpha  occ. eigenvalues --   -0.78437  -0.77213
 Alpha virt. eigenvalues --   -0.25385  -0.20425  -0.18421  -0.15733  -0.15417
 Alpha virt. eigenvalues --   -0.12627  -0.11166  -0.09484  -0.06447  -0.05648
 Alpha virt. eigenvalues --   -0.04728  -0.00535   0.00504   0.03347   0.04210

 Mulliken charges:
               1
     1  Fe   0.542298
     2  O   -0.549438
     3  O   -0.522254
     4  O   -0.538657
     5  O   -0.556580
     6  O   -0.501880
     7  O   -0.540453
     8  H    0.398126
     9  H    0.377391
    10  H    0.381510
    11  H    0.377881
    12  H    0.397310
    13  H    0.394559
    14  H    0.401743
    15  H    0.371254
    16  H    0.377446
    17  H    0.382890
    18  H    0.403240
    19  H    0.403613
 Sum of Mulliken charges =   2.00000

 Dipole moment (field-independent basis, Debye):
    X=             -0.6263    Y=              5.7075    Z=             -3.3107  Tot=              6.6279
 Quadrupole moment (field-independent basis, Debye-Ang):
   XX=            -21.9217   YY=            -27.2853   ZZ=            -27.4736
   XY=             -0.1869   XZ=             -2.9108   YZ=              2.2065

 Normal termination of Gaussian 16 at Sat May 14 11:40:36 2022.
