                         Program Version 5.0.0 -  RELEASE  -
|  1> ! UHF cc-pVTZ VeryTightSCF NoTRAH
|  2>
|  3> %pal
|  4>     nprocs 16
|  5> end
|  6>
|  7> %scf
|  8>     MaxIter     500
|  9>     STABPerform true
| 10> end
| 11>
| 12> *xyz 2 5
| 13> Fe -0.64257176050830  0.51803920561668  0.11515259480577
| 14>  O  0.11174687498777  2.15027362958097 -0.78003307659188
| 15>  H  0.70766775417542  2.71590643817051 -0.25346860209865
| 16>  O -1.31193844940493 -0.30254437211926 -1.59153974321848
| 17>  H -1.93648366806763  0.13093135988795 -2.20090760771949
| 18>  O  0.02720918798052  1.33940572113505  1.82122676893196
| 19>  H  0.65258765622944  0.90686870076571  2.43040311553976
| 20>  O -1.39648053530566 -1.11444807905756  1.01023916292248
| 21>  H -1.99331392681300 -1.67940484230818  0.48397490889195
| 22>  O -2.28682023617329  1.63340828371306  0.41005372492049
| 23>  H -2.35377021104600  2.47291065207153 -0.08301808819513
| 24>  O  1.00194372931180 -0.59712335622834 -0.17950165163229
| 25>  H  1.06807766676477 -1.43758842942053  0.31202545851205
| 26>  H -3.18922098471738  1.27280247171927  0.48036417156888
| 27>  H -0.66521991563992 -0.78352006296416 -2.14179468111308
| 28>  H  1.90454646424149 -0.23678289755293 -0.24845043594753
| 29>  H  0.43776650602076  2.17113603799071 -1.69794346797289
| 30>  H -0.61875604533523  1.82123954705219  2.37159866149671
| 31>  H -1.72126010670064 -1.13595000805262  1.92856878689935
| 32>  *
| 33>
| 34>                          ****END OF INPUT****

CARTESIAN COORDINATES (ANGSTROEM)
---------------------------------
  Fe    -0.642572    0.518039    0.115153
  O      0.111747    2.150274   -0.780033
  H      0.707668    2.715906   -0.253469
  O     -1.311938   -0.302544   -1.591540
  H     -1.936484    0.130931   -2.200908
  O      0.027209    1.339406    1.821227
  H      0.652588    0.906869    2.430403
  O     -1.396481   -1.114448    1.010239
  H     -1.993314   -1.679405    0.483975
  O     -2.286820    1.633408    0.410054
  H     -2.353770    2.472911   -0.083018
  O      1.001944   -0.597123   -0.179502
  H      1.068078   -1.437588    0.312025
  H     -3.189221    1.272802    0.480364
  H     -0.665220   -0.783520   -2.141795
  H      1.904546   -0.236783   -0.248450
  H      0.437767    2.171136   -1.697943
  H     -0.618756    1.821240    2.371599
  H     -1.721260   -1.135950    1.928569

 Total Charge           Charge          ....    2
 Multiplicity           Mult            ....    5
 Number of Electrons    NEL             ....   84
 Basis Dimension        Dim             ....  416

ORBITAL ENERGIES
----------------
                 SPIN UP ORBITALS
  NO   OCC          E(Eh)            E(eV)
   0   1.0000    -261.580418     -7117.9650
   1   1.0000     -32.203629      -876.3053
   2   1.0000     -27.694015      -753.5925
   3   1.0000     -27.693909      -753.5896
   4   1.0000     -27.660909      -752.6916
   5   1.0000     -20.909580      -568.9786
   6   1.0000     -20.909574      -568.9784
   7   1.0000     -20.909568      -568.9783
   8   1.0000     -20.909566      -568.9782
   9   1.0000     -20.909559      -568.9780
  10   1.0000     -20.909553      -568.9779
  11   1.0000      -4.571782      -124.4045
  12   1.0000      -3.214118       -87.4606
  13   1.0000      -3.213882       -87.4542
  14   1.0000      -3.143206       -85.5310
  15   1.0000      -1.713037       -46.6141
  16   1.0000      -1.701930       -46.3119
  17   1.0000      -1.697651       -46.1954
  18   1.0000      -1.697642       -46.1952
  19   1.0000      -1.696131       -46.1541
  20   1.0000      -1.696123       -46.1538
  21   1.0000      -1.075587       -29.2682
  22   1.0000      -1.068174       -29.0665
  23   1.0000      -1.068153       -29.0659
  24   1.0000      -1.068132       -29.0653
  25   1.0000      -1.060915       -28.8690
  26   1.0000      -1.060881       -28.8681
  27   1.0000      -1.046650       -28.4808
  28   1.0000      -1.046619       -28.4800
  29   1.0000      -1.017927       -27.6992
  30   1.0000      -0.970692       -26.4139
  31   1.0000      -0.959418       -26.1071
  32   1.0000      -0.959411       -26.1069
  33   1.0000      -0.949936       -25.8491
  34   1.0000      -0.949913       -25.8484
  35   1.0000      -0.888501       -24.1773
  36   1.0000      -0.874633       -23.8000
  37   1.0000      -0.874611       -23.7994
  38   1.0000      -0.863877       -23.5073
  39   1.0000      -0.863849       -23.5065
  40   1.0000      -0.856364       -23.3029
  41   1.0000      -0.826987       -22.5035
  42   1.0000      -0.792793       -21.5730
  43   1.0000      -0.792758       -21.5721
  44   0.0000      -0.215322        -5.8592
  45   0.0000      -0.175710        -4.7813
  46   0.0000      -0.175702        -4.7811
  47   0.0000      -0.161339        -4.3903
  48   0.0000      -0.103590        -2.8188

                 SPIN DOWN ORBITALS
  NO   OCC          E(Eh)            E(eV)
   0   1.0000    -261.577984     -7117.8988
   1   1.0000     -32.077853      -872.8828
   2   1.0000     -27.559272      -749.9259
   3   1.0000     -27.559271      -749.9259
   4   1.0000     -27.558662      -749.9093
   5   1.0000     -20.907724      -568.9281
   6   1.0000     -20.907717      -568.9279
   7   1.0000     -20.907712      -568.9278
   8   1.0000     -20.907709      -568.9277
   9   1.0000     -20.907703      -568.9275
  10   1.0000     -20.907697      -568.9274
  11   1.0000      -4.215534      -114.7105
  12   1.0000      -2.796973       -76.1095
  13   1.0000      -2.743822       -74.6632
  14   1.0000      -2.743647       -74.6584
  15   1.0000      -1.708739       -46.4971
  16   1.0000      -1.697481       -46.1908
  17   1.0000      -1.693103       -46.0717
  18   1.0000      -1.693095       -46.0715
  19   1.0000      -1.691007       -46.0146
  20   1.0000      -1.691000       -46.0145
  21   1.0000      -1.071743       -29.1636
  22   1.0000      -1.066135       -29.0110
  23   1.0000      -1.059493       -28.8303
  24   1.0000      -1.059462       -28.8294
  25   1.0000      -1.058886       -28.8138
  26   1.0000      -1.058853       -28.8129
  27   1.0000      -1.008135       -27.4328
  28   1.0000      -0.962955       -26.2033
  29   1.0000      -0.950962       -25.8770
  30   1.0000      -0.950956       -25.8768
  31   1.0000      -0.950247       -25.8575
  32   1.0000      -0.950239       -25.8573
  33   1.0000      -0.868622       -23.6364
  34   1.0000      -0.868602       -23.6359
  35   1.0000      -0.868542       -23.6342
  36   1.0000      -0.868524       -23.6337
  37   1.0000      -0.866727       -23.5848
  38   1.0000      -0.849952       -23.1284
  39   1.0000      -0.697161       -18.9707
  40   0.0000      -0.214511        -5.8371
  41   0.0000      -0.175264        -4.7692
  42   0.0000      -0.175255        -4.7689
  43   0.0000      -0.161054        -4.3825
  44   0.0000      -0.108835        -2.9616

MULLIKEN ATOMIC CHARGES AND SPIN POPULATIONS
--------------------------------------------
   0 Fe:    1.350654    3.906406
   1 O :   -0.522462    0.011366
   2 H :    0.320403    0.002396
   3 O :   -0.522462    0.011367
   4 H :    0.310310    0.001844
   5 O :   -0.522581    0.011356
   6 H :    0.310341    0.001848
   7 O :   -0.522527    0.011358
   8 H :    0.320420    0.002396
   9 O :   -0.522441    0.011349
  10 H :    0.320377    0.002399
  11 O :   -0.522520    0.011348
  12 H :    0.320412    0.002395
  13 H :    0.310292    0.001844
  14 H :    0.320387    0.002391
  15 H :    0.310313    0.001849
  16 H :    0.310298    0.001846
  17 H :    0.320455    0.002396
  18 H :    0.310332    0.001845
Sum of atomic charges         :    2.0000000

LOEWDIN ATOMIC CHARGES AND SPIN POPULATIONS
-------------------------------------------
   0 Fe:   -0.224734    3.837905
   1 O :    0.530039    0.022007
   2 H :   -0.075543    0.002629
   3 O :    0.530028    0.021997
   4 H :   -0.083708    0.002394
   5 O :    0.530040    0.021995
   6 H :   -0.083716    0.002394
   7 O :    0.530048    0.021997
   8 H :   -0.075521    0.002629
   9 O :    0.530007    0.021984
  10 H :   -0.075514    0.002630
  11 O :    0.529999    0.021985
  12 H :   -0.075524    0.002627
  13 H :   -0.083704    0.002393
  14 H :   -0.075518    0.002624
  15 H :   -0.083724    0.002395
  16 H :   -0.083722    0.002395
  17 H :   -0.075522    0.002627
  18 H :   -0.083711    0.002394

  Mayer bond orders larger than 0.100000
B(  0-Fe,  1-O ) :   0.1940 B(  0-Fe,  3-O ) :   0.1940 B(  0-Fe,  5-O ) :   0.1940
B(  0-Fe,  7-O ) :   0.1940 B(  0-Fe,  9-O ) :   0.1940 B(  0-Fe, 11-O ) :   0.1939
B(  1-O ,  2-H ) :   0.9163 B(  1-O , 16-H ) :   0.9210 B(  3-O ,  4-H ) :   0.9210
B(  3-O , 14-H ) :   0.9163 B(  5-O ,  6-H ) :   0.9210 B(  5-O , 17-H ) :   0.9162
B(  7-O ,  8-H ) :   0.9163 B(  7-O , 18-H ) :   0.9210 B(  9-O , 10-H ) :   0.9163
B(  9-O , 13-H ) :   0.9210 B( 11-O , 12-H ) :   0.9163 B( 11-O , 15-H ) :   0.9210

FINAL SINGLE POINT ENERGY     -1718.438791080649

DIPOLE MOMENT
-------------
                                X             Y             Z
Electronic contribution:     -0.00163      -0.00100       0.00067
Nuclear contribution   :      0.00229       0.00130      -0.00008
                        -----------------------------------------
Total Dipole Moment    :      0.00066       0.00030       0.00059
                        -----------------------------------------
Magnitude (a.u.)       :      0.00093
Magnitude (Debye)      :      0.00237

Rotational constants in cm-1:     0.057213     0.051955     0.051945
Rotational constants in MHz :  1715.201752  1557.579206  1557.273951

                             ****ORCA TERMINATED NORMALLY****
TOTAL RUN TIME: 0 days 0 hours 39 minutes 37 seconds 170 msec
