 Gaussian 16, Revision A.03,
 Gaussian 16:  ES64L-G16RevA.03 25-Dec-2016

 ------------------------
 #p B3LYP/Def2TZVP stable
 ------------------------

 ------------
 [Fe(H2O)6]2+
 ------------
 Symbolic Z-matrix:
 Charge =  2 Multiplicity = 1

                         Standard orientation:
 ---------------------------------------------------------------------
 Center     Atomic      Atomic             Coordinates (Angstroms)
 Number     Number       Type             X           Y           Z
 ---------------------------------------------------------------------
      1         26           0        0.010146   -0.033639    0.027691
      2          8           0        1.539344   -0.374401   -0.898502
      3          8           0        0.867758    1.400282    0.749336
      4          8           0        0.602850   -1.139176    1.346361
      5          8           0       -1.499338    0.367194    0.962139
      6          8           0       -0.840449   -1.474176   -0.689069
      7          8           0       -0.658320    0.960583   -1.342373
      8          1           0       -2.268708    0.074824    0.467984
      9          1           0       -1.548508    1.316127    1.098919
     10          1           0       -0.448150   -1.687237   -1.538955
     11          1           0       -1.770828   -1.269781   -0.808302
     12          1           0        0.060569    1.412336   -1.790388
     13          1           0       -1.276624    1.608088   -0.995908
     14          1           0        1.321268   -0.800900   -1.730453
     15          1           0        1.998620    0.450457   -1.072501
     16          1           0        1.560364    1.692654    0.152330
     17          1           0        0.239897    2.113732    0.884901
     18          1           0        1.559343   -1.082512    1.405608
     19          1           0        0.214198   -0.875614    2.183669
 ---------------------------------------------------------------------

 SCF Done:  E(RB3LYP) =  -1721.89238751     A.U. after   17 cycles

 The electronic state is 1-A.
 Alpha  occ. eigenvalues -- -256.34047 -30.28490 -26.14702 -26.14541 -26.14386
 Alpha  occ. eigenvalues --  -19.54324 -19.54294 -19.54265 -19.54199 -19.51094
 Alpha  occ. eigenvalues --  -19.48072  -3.72125  -2.50045  -2.49669  -2.49342
 Alpha  occ. eigenvalues --   -1.45807  -1.43636  -1.43182  -1.42961  -1.40471
 Alpha  occ. eigenvalues --   -1.37374  -0.99508  -0.96847  -0.96129  -0.94613
 Alpha  occ. eigenvalues --   -0.91460  -0.90277  -0.86921  -0.84587  -0.83344
 Alpha  occ. eigenvalues --   -0.81789  -0.81279  -0.78351  -0.77376  -0.74370
 Alpha  occ. eigenvalues --   -0.74220  -0.72825  -0.70668  -0.68151  -0.54945
 Alpha  occ. eigenvalues --   -0.53593  -0.52363
 Alpha virt. eigenvalues --   -0.38362  -0.33368  -0.31565  -0.29966  -0.29717
 Alpha virt. eigenvalues --   -0.28416  -0.27584  -0.24253  -0.22670  -0.21493
 Alpha virt. eigenvalues --   -0.19547  -0.18867  -0.17816  -0.13499  -0.10280

 Mulliken charges:
               1
     1  Fe   0.053707
     2  O   -0.412600
     3  O   -0.380561
     4  O   -0.390239
     5  O   -0.420827
     6  O   -0.359315
     7  O   -0.396250
     8  H    0.367507
     9  H    0.349852
    10  H    0.354526
    11  H    0.349384
    12  H    0.364596
    13  H    0.358289
    14  H    0.373025
    15  H    0.340703
    16  H    0.344396
    17  H    0.352556
    18  H    0.375233
    19  H    0.376019
 Sum of Mulliken charges =   2.00000

 Dipole moment (field-independent basis, Debye):
    X=             -0.5750    Y=              5.1635    Z=             -3.0168  Tot=              6.0078
 Quadrupole moment (field-independent basis, Debye-Ang):
   XX=            -22.6518   YY=            -27.8903   ZZ=            -27.8646
   XY=             -0.1904   XZ=             -2.7416   YZ=              2.1758

 Normal termination of Gaussian 16 at Sat May 14 12:09:46 2022.
