 Gaussian 16, Revision A.03,
 Gaussian 16:  ES64L-G16RevA.03 25-Dec-2016

 ----------------
 #p B3LYP/cc-pVDZ
 ----------------

 ---------------------------------------
 3,8-dicl-dibenzene SP RKS B3LYP cc-pVDZ
 ---------------------------------------
 Symbolic Z-matrix:
 Charge =  0 Multiplicity = 1

                         Standard orientation:
 ---------------------------------------------------------------------
 Center     Atomic      Atomic             Coordinates (Angstroms)
 Number     Number       Type             X           Y           Z
 ---------------------------------------------------------------------
      1          6           0        2.730812   -0.022491    1.452760
      2          6           0        1.349615   -0.011465    1.322312
      3          6           0        0.746550   -0.005826    0.066646
      4          6           0        1.562496   -0.011510   -1.062343
      5          6           0        2.944960   -0.022535   -0.946075
      6          6           0        3.520366   -0.028168    0.314268
      7          1           0        3.191814   -0.026765    2.429874
      8          1           0        0.733622   -0.007147    2.211768
      9          1           0        1.113794   -0.007226   -2.046846
     10          1           0        3.571749   -0.026843   -1.826081
     11          6           0       -0.746572    0.005775   -0.066648
     12          6           0       -1.446629    1.208552   -0.129164
     13          6           0       -1.465504   -1.185565   -0.130806
     14          6           0       -2.828364    1.226701   -0.252514
     15          1           0       -0.906707    2.144903   -0.080981
     16          6           0       -2.847410   -1.181634   -0.254171
     17          1           0       -0.940500   -2.130432   -0.083921
     18          6           0       -3.520327    0.027935   -0.314265
     19          1           0       -3.365065    2.163155   -0.300443
     20          1           0       -3.398825   -2.109435   -0.303380
     21         17           0        5.254105   -0.041683    0.469042
     22         17           0       -5.254096    0.041753   -0.469041
 ---------------------------------------------------------------------

 SCF Done:  E(RB3LYP) =  -1382.56312014     A.U. after   13 cycles

 The electronic state is 1-A.
 Alpha  occ. eigenvalues -- -101.54703-101.54702 -10.25289 -10.25288 -10.21141
 Alpha  occ. eigenvalues --  -10.21116 -10.20659 -10.20659 -10.20658 -10.20657
 Alpha  occ. eigenvalues --  -10.20548 -10.20548 -10.20547 -10.20547  -9.46557
 Alpha  occ. eigenvalues --   -9.46557  -7.22806  -7.22806  -7.21846  -7.21846
 Alpha  occ. eigenvalues --   -7.21806  -7.21806  -0.90630  -0.90027  -0.86163
 Alpha  occ. eigenvalues --   -0.83820  -0.77162  -0.76952  -0.76952  -0.71906
 Alpha  occ. eigenvalues --   -0.63165  -0.63164  -0.62455  -0.59218  -0.54335
 Alpha  occ. eigenvalues --   -0.50366  -0.48499  -0.48499  -0.47632  -0.46345
 Alpha  occ. eigenvalues --   -0.44076  -0.44076  -0.43659  -0.40479  -0.40478
 Alpha  occ. eigenvalues --   -0.39852  -0.37094  -0.37093  -0.35678  -0.33740
 Alpha  occ. eigenvalues --   -0.33739  -0.31592  -0.31592  -0.27648  -0.27090
 Alpha  occ. eigenvalues --   -0.25224  -0.25224
 Alpha virt. eigenvalues --   -0.03351  -0.02168  -0.02168  -0.01340   0.02962
 Alpha virt. eigenvalues --    0.03025   0.08755   0.08769   0.09095   0.09096
 Alpha virt. eigenvalues --    0.11534   0.12564   0.13363   0.13363   0.14278

 Mulliken charges:
               1
     1  C    0.134297
     2  C    0.051038
     3  C   -0.008005
     4  C    0.051051
     5  C    0.134296
     6  C   -0.143343
     7  H   -0.025040
     8  H   -0.040818
     9  H   -0.040820
    10  H   -0.025042
    11  C   -0.008048
    12  C    0.051105
    13  C    0.051044
    14  C    0.134304
    15  H   -0.040812
    16  C    0.134324
    17  H   -0.040820
    18  C   -0.143379
    19  H   -0.025040
    20  H   -0.025038
    21  Cl  -0.087620
    22  Cl  -0.087635
 Sum of Mulliken charges =  -0.00000

 Dipole moment (field-independent basis, Debye):
    X=              0.0002    Y=              0.0001    Z=              0.0000  Tot=              0.0002
 Quadrupole moment (field-independent basis, Debye-Ang):
   XX=           -109.0907   YY=            -90.6499   ZZ=            -90.7950
   XY=              0.1470   XZ=             -1.6463   YZ=              0.0131

 Normal termination of Gaussian 16 at Wed May  4 13:09:58 2022.
