 Gaussian 16, Revision A.03,
 Gaussian 16:  ES64L-G16RevA.03 25-Dec-2016

 -----------------------------------
 #p CIS=(NStates=18)/def2SVP Pop=Reg
 -----------------------------------

 ----------------
 BenzeneDimer CIS
 ----------------
 Symbolic Z-matrix:
 Charge =  0 Multiplicity = 1

                         Standard orientation:
 ---------------------------------------------------------------------
 Center     Atomic      Atomic             Coordinates (Angstroms)
 Number     Number       Type             X           Y           Z
 ---------------------------------------------------------------------
      1          6           0       -2.647475   -0.543473   -0.711521
      2          6           0       -1.987044   -1.387011    0.186820
      3          6           0       -1.221108   -0.843604    1.223230
      4          6           0       -1.117423    0.542470    1.363026
      5          6           0       -1.780165    1.386791    0.466754
      6          6           0       -2.544441    0.844973   -0.570969
      7          1           0       -3.243081   -0.966949   -1.521192
      8          1           0       -2.063328   -2.469128    0.074672
      9          1           0       -0.691644   -1.500704    1.912652
     10          1           0       -0.504946    0.964659    2.159121
     11          1           0       -1.692981    2.468643    0.571744
     12          1           0       -3.059341    1.503536   -1.271552
     13          6           0        1.118192   -0.548339   -1.360487
     14          6           0        1.783966   -1.387572   -0.461680
     15          6           0        2.547491   -0.839882    0.573502
     16          6           0        2.646706    0.549349    0.708982
     17          6           0        1.983209    1.387783   -0.191870
     18          6           0        1.218059    0.838514   -1.225765
     19          1           0        0.506377   -0.975086   -2.154659
     20          1           0        1.699837   -2.470039   -0.562778
     21          1           0        3.064778   -1.494471    1.276047
     22          1           0        3.241754    0.977412    1.516649
     23          1           0        2.056495    2.470507   -0.083646
     24          1           0        0.686277    1.491627   -1.917184
 ---------------------------------------------------------------------

 SCF Done:  E(RHF) =  -461.064834237     A.U. after   13 cycles

 Excitation energies and oscillator strengths:

 Excited State   1:      Singlet-A      6.1665 eV  201.06 nm  f=0.0001  <S**2>=0.000
      39 -> 43        -0.19954
      39 -> 45        -0.24075
      40 -> 43        -0.27975
      40 -> 45         0.21596
      41 -> 44        -0.26162
      41 -> 46        -0.22362
      42 -> 44        -0.25681
      42 -> 46         0.29214
 This state for optimization and/or second-order correction.
 Total Energy, E(CIS/TDA) =  -460.838220188
 Copying the excited state density for this state as the 1-particle RhoCI density.

 Excited State   2:      Singlet-A      6.1718 eV  200.89 nm  f=0.0000  <S**2>=0.000
      39 -> 44         0.18714
      39 -> 46        -0.23899
      40 -> 44        -0.27772
      40 -> 46        -0.20890
      41 -> 43        -0.26715
      41 -> 45         0.23317
      42 -> 43         0.26820
      42 -> 45         0.28914

 Excited State   3:      Singlet-A      6.3326 eV  195.79 nm  f=0.0009  <S**2>=0.000
      39 -> 43        -0.24671
      39 -> 45         0.18989
      40 -> 43         0.21711
      40 -> 45         0.26214
      41 -> 44        -0.21866
      41 -> 46         0.24743
      42 -> 44         0.29754
      42 -> 46         0.25606

 Excited State   4:      Singlet-A      6.3415 eV  195.51 nm  f=0.0000  <S**2>=0.000
      39 -> 44         0.23486
      39 -> 46         0.17508
      40 -> 44         0.21120
      40 -> 46        -0.27012
      41 -> 43        -0.24159
      41 -> 45        -0.25903
      42 -> 43        -0.28980
      42 -> 45         0.25355

 Excited State   5:      Singlet-A      7.8932 eV  157.08 nm  f=0.0000  <S**2>=0.000
      39 -> 44        -0.11227
      39 -> 46        -0.20632
      40 -> 44         0.31591
      40 -> 46        -0.13472
      41 -> 45        -0.32009
      42 -> 43         0.41717
      42 -> 45        -0.10047

 Excited State   6:      Singlet-A      8.0103 eV  154.78 nm  f=0.0000  <S**2>=0.000
      39 -> 44         0.18932
      40 -> 44         0.13886
      40 -> 46         0.27266
      41 -> 43         0.35176
      42 -> 43         0.11942
      42 -> 45         0.43146

 Excited State   7:      Singlet-A      8.4265 eV  147.14 nm  f=1.8827  <S**2>=0.000
      39 -> 45         0.15153
      40 -> 43        -0.37540
      41 -> 44        -0.13218
      41 -> 46        -0.23194
      42 -> 44         0.40269
      42 -> 46        -0.20913

 Excited State   8:      Singlet-A      8.4655 eV  146.46 nm  f=0.0000  <S**2>=0.000
      38 -> 49         0.10579
      39 -> 48         0.31935
      42 -> 47         0.59078

 Excited State   9:      Singlet-A      8.5962 eV  144.23 nm  f=1.4633  <S**2>=0.000
      39 -> 47        -0.19090
      40 -> 45        -0.28156
      41 -> 44         0.26582
      41 -> 46        -0.14073
      42 -> 44         0.20971
      42 -> 46         0.38958
      42 -> 48        -0.17542

 Excited State  10:      Singlet-A      8.6086 eV  144.02 nm  f=0.0001  <S**2>=0.000
      40 -> 48        -0.39818
      41 -> 47         0.53234

 Excited State  11:      Singlet-A      8.6098 eV  144.00 nm  f=0.0839  <S**2>=0.000
      40 -> 47         0.52612
      41 -> 48        -0.39714

 Excited State  12:      Singlet-A      8.6655 eV  143.08 nm  f=0.3373  <S**2>=0.000
      39 -> 43        -0.13564
      39 -> 47         0.43083
      40 -> 45        -0.16475
      41 -> 44         0.10073
      42 -> 46         0.12745
      42 -> 48         0.43208

 Excited State  13:      Singlet-A      9.0219 eV  137.43 nm  f=0.0203  <S**2>=0.000
      40 -> 43        -0.27979
      40 -> 45        -0.37195
      41 -> 44        -0.31339
      41 -> 46         0.39804

 Excited State  14:      Singlet-A      9.0458 eV  137.06 nm  f=0.0000  <S**2>=0.000
      40 -> 44        -0.27009
      40 -> 46         0.41800
      41 -> 43        -0.32526
      41 -> 45        -0.35009

 Excited State  15:      Singlet-A      9.0746 eV  136.63 nm  f=0.0754  <S**2>=0.000
      40 -> 43        -0.31186
      40 -> 45         0.28911
      41 -> 44         0.36983
      41 -> 46         0.32362
      42 -> 49         0.14150

 Excited State  16:      Singlet-A      9.0809 eV  136.53 nm  f=0.0004  <S**2>=0.000
      40 -> 44         0.38880
      40 -> 46         0.28928
      41 -> 43        -0.32439
      41 -> 45         0.34711

 Excited State  17:      Singlet-A      9.1657 eV  135.27 nm  f=0.0149  <S**2>=0.000
      33 -> 48        -0.11858
      38 -> 47         0.17547
      39 -> 52        -0.21052
      39 -> 54         0.10954
      40 -> 43         0.13855
      40 -> 51        -0.20530
      41 -> 44        -0.10109
      41 -> 46        -0.11922
      41 -> 50         0.24880
      42 -> 49         0.43723

 Excited State  18:      Singlet-A      9.2448 eV  134.11 nm  f=0.0000  <S**2>=0.000
      33 -> 47        -0.10401
      38 -> 48         0.10167
      39 -> 44         0.32861
      39 -> 46        -0.29466
      39 -> 49         0.19849
      40 -> 50        -0.23899
      41 -> 51         0.16795
      42 -> 43        -0.13344
      42 -> 45        -0.22301
      42 -> 52        -0.15742

 The electronic state is 1-A.
 Alpha  occ. eigenvalues --  -11.23613 -11.23612 -11.23529 -11.23528 -11.23464
 Alpha  occ. eigenvalues --  -11.23459 -11.23419 -11.23417 -11.23335 -11.23333
 Alpha  occ. eigenvalues --  -11.23225 -11.23224  -1.13419  -1.13026  -0.99847
 Alpha  occ. eigenvalues --   -0.99670  -0.99656  -0.99518  -0.81018  -0.81001
 Alpha  occ. eigenvalues --   -0.80993  -0.80966  -0.70214  -0.70079  -0.63108
 Alpha  occ. eigenvalues --   -0.63080  -0.61629  -0.61581  -0.58324  -0.58251
 Alpha  occ. eigenvalues --   -0.58227  -0.58176  -0.51196  -0.49071  -0.49064
 Alpha  occ. eigenvalues --   -0.49057  -0.49041  -0.48009  -0.34541  -0.33069
 Alpha  occ. eigenvalues --   -0.33050  -0.31851
 Alpha virt. eigenvalues --    0.13408   0.13703   0.13720   0.13929   0.17247
 Alpha virt. eigenvalues --    0.19671   0.20623   0.21497   0.23399   0.23794
 Alpha virt. eigenvalues --    0.25416   0.25642   0.26599   0.27216   0.28647

 Mulliken charges:
               1
     1  C   -0.046848
     2  C   -0.051126
     3  C   -0.021686
     4  C   -0.024082
     5  C   -0.042988
     6  C   -0.049255
     7  H    0.039762
     8  H    0.038372
     9  H    0.039434
    10  H    0.040772
    11  H    0.038102
    12  H    0.039547
    13  C   -0.024055
    14  C   -0.043075
    15  C   -0.049207
    16  C   -0.046920
    17  C   -0.051006
    18  C   -0.021694
    19  H    0.040743
    20  H    0.038099
    21  H    0.039547
    22  H    0.039758
    23  H    0.038356
    24  H    0.039450
 Sum of Mulliken charges =  -0.00000

 Dipole moment (field-independent basis, Debye):
    X=             -0.0002    Y=             -0.0001    Z=              0.0001  Tot=              0.0002
 Quadrupole moment (field-independent basis, Debye-Ang):
   XX=            -77.0316   YY=            -64.6383   ZZ=            -70.5443
   XY=             -0.0013   XZ=              8.0768   YZ=             -0.0026

 Normal termination of Gaussian 16 at Sat May  7 20:24:17 2022.
