 Gaussian 16, Revision A.03,
 Gaussian 16:  ES64L-G16RevA.03 25-Dec-2016

 ---------------------------------
 #p TD=(nstates=18) RB3LYP/def2SVP
 ---------------------------------

 ------------------
 benzeneDimer TDDFT
 ------------------
 Symbolic Z-matrix:
 Charge =  0 Multiplicity = 1

                         Standard orientation:
 ---------------------------------------------------------------------
 Center     Atomic      Atomic             Coordinates (Angstroms)
 Number     Number       Type             X           Y           Z
 ---------------------------------------------------------------------
      1          6           0       -2.647475   -0.543473   -0.711521
      2          6           0       -1.987044   -1.387011    0.186820
      3          6           0       -1.221108   -0.843604    1.223230
      4          6           0       -1.117423    0.542470    1.363026
      5          6           0       -1.780165    1.386791    0.466754
      6          6           0       -2.544441    0.844973   -0.570969
      7          1           0       -3.243081   -0.966949   -1.521192
      8          1           0       -2.063328   -2.469128    0.074672
      9          1           0       -0.691644   -1.500704    1.912652
     10          1           0       -0.504946    0.964659    2.159121
     11          1           0       -1.692981    2.468643    0.571744
     12          1           0       -3.059341    1.503536   -1.271552
     13          6           0        1.118192   -0.548339   -1.360487
     14          6           0        1.783966   -1.387572   -0.461680
     15          6           0        2.547491   -0.839882    0.573502
     16          6           0        2.646706    0.549349    0.708982
     17          6           0        1.983209    1.387783   -0.191870
     18          6           0        1.218059    0.838514   -1.225765
     19          1           0        0.506377   -0.975086   -2.154659
     20          1           0        1.699837   -2.470039   -0.562778
     21          1           0        3.064778   -1.494471    1.276047
     22          1           0        3.241754    0.977412    1.516649
     23          1           0        2.056495    2.470507   -0.083646
     24          1           0        0.686277    1.491627   -1.917184
 ---------------------------------------------------------------------

 SCF Done:  E(RB3LYP) =  -464.165941156     A.U. after   12 cycles

 Excitation energies and oscillator strengths:

 Excited State   1:      Singlet-A      5.3967 eV  229.74 nm  f=0.0000  <S**2>=0.000
      39 -> 44        -0.10672
      39 -> 46         0.15265
      40 -> 43        -0.14885
      40 -> 44        -0.22510
      40 -> 45         0.13375
      40 -> 46        -0.11892
      41 -> 43         0.19391
      41 -> 44        -0.16611
      41 -> 45        -0.17857
      42 -> 43         0.36955
      42 -> 45         0.34308
 This state for optimization and/or second-order correction.
 Total Energy, E(TD-HF/TD-DFT) =  -463.967616940
 Copying the excited state density for this state as the 1-particle RhoCI density.

 Excited State   2:      Singlet-A      5.4139 eV  229.01 nm  f=0.0027  <S**2>=0.000
      39 -> 43         0.15822
      39 -> 45         0.14966
      40 -> 43        -0.20082
      40 -> 44        -0.17884
      40 -> 45         0.17420
      41 -> 43        -0.15830
      41 -> 44         0.22468
      41 -> 45         0.14066
      41 -> 46         0.13200
      42 -> 44        -0.26489
      42 -> 46         0.39562

 Excited State   3:      Singlet-A      5.8774 eV  210.95 nm  f=0.0000  <S**2>=0.000
      39 -> 44        -0.16128
      39 -> 46        -0.13963
      40 -> 43         0.10876
      41 -> 43        -0.13919
      42 -> 43         0.46217
      42 -> 45        -0.43723

 Excited State   4:      Singlet-A      5.8970 eV  210.25 nm  f=0.0119  <S**2>=0.000
      39 -> 43        -0.17407
      39 -> 45         0.14086
      40 -> 43         0.10194
      42 -> 44         0.52490
      42 -> 46         0.36419

 Excited State   5:      Singlet-A      5.9660 eV  207.82 nm  f=0.0000  <S**2>=0.000
      40 -> 43        -0.29988
      40 -> 44         0.12758
      40 -> 46         0.31679
      41 -> 43         0.42315
      41 -> 44         0.11316
      41 -> 46         0.26469
      42 -> 45        -0.13251

 Excited State   6:      Singlet-A      5.9708 eV  207.65 nm  f=0.0028  <S**2>=0.000
      39 -> 45        -0.11281
      40 -> 43         0.40639
      40 -> 44        -0.14514
      40 -> 45        -0.13964
      40 -> 46        -0.23478
      41 -> 43         0.28401
      41 -> 44         0.19521
      41 -> 45        -0.10689
      41 -> 46         0.27123
      42 -> 44        -0.11019

 Excited State   7:      Singlet-A      5.9781 eV  207.40 nm  f=0.0000  <S**2>=0.000
      40 -> 44        -0.36482
      40 -> 45        -0.28043
      40 -> 46         0.12643
      41 -> 44        -0.31375
      41 -> 45         0.38488
      41 -> 46         0.12111

 Excited State   8:      Singlet-A      5.9868 eV  207.09 nm  f=0.0006  <S**2>=0.000
      40 -> 43         0.13205
      40 -> 44         0.26258
      40 -> 45         0.39624
      40 -> 46        -0.17389
      41 -> 44        -0.31382
      41 -> 45         0.26710
      41 -> 46         0.20808

 Excited State   9:      Singlet-A      6.0387 eV  205.32 nm  f=0.0000  <S**2>=0.000
      39 -> 44        -0.28452
      39 -> 46         0.40233
      40 -> 44        -0.11182
      40 -> 46        -0.16184
      41 -> 45        -0.13062
      41 -> 46        -0.12289
      42 -> 43        -0.27275
      42 -> 45        -0.30631

 Excited State  10:      Singlet-A      6.0755 eV  204.07 nm  f=0.0681  <S**2>=0.000
      39 -> 43         0.40343
      39 -> 45         0.31846
      40 -> 44        -0.12346
      41 -> 44         0.15927
      41 -> 46         0.10625
      42 -> 44         0.23659
      42 -> 46        -0.33252

 Excited State  11:      Singlet-A      6.2964 eV  196.91 nm  f=0.0100  <S**2>=0.000
      39 -> 43        -0.33388
      39 -> 45         0.40432
      40 -> 43        -0.15174
      40 -> 45        -0.17183
      40 -> 46        -0.20980
      41 -> 43        -0.11292
      41 -> 44        -0.10861
      41 -> 45        -0.13355
      41 -> 46         0.26559

 Excited State  12:      Singlet-A      6.2991 eV  196.83 nm  f=0.0000  <S**2>=0.000
      39 -> 44         0.40070
      39 -> 46         0.26965
      40 -> 43         0.12324
      40 -> 44        -0.14905
      40 -> 45         0.16260
      40 -> 46         0.26304
      41 -> 43        -0.16041
      41 -> 44        -0.11282
      41 -> 45        -0.22009
      41 -> 46         0.20644

 Excited State  13:      Singlet-A      6.9794 eV  177.64 nm  f=0.0000  <S**2>=0.000
      39 -> 44         0.28722
      39 -> 46         0.33727
      40 -> 44         0.17395
      40 -> 45        -0.16135
      40 -> 46        -0.15390
      41 -> 44         0.12806
      41 -> 45         0.21421
      41 -> 46        -0.11998
      42 -> 43         0.23174
      42 -> 45        -0.13151
      42 -> 47        -0.23045

 Excited State  14:      Singlet-A      7.1051 eV  174.50 nm  f=0.0000  <S**2>=0.000
      39 -> 44         0.34338
      39 -> 46        -0.29940
      40 -> 43        -0.16594
      40 -> 44        -0.17313
      40 -> 46        -0.21125
      41 -> 43         0.21468
      41 -> 44        -0.13020
      41 -> 45        -0.11965
      41 -> 46        -0.16257
      42 -> 43        -0.10233
      42 -> 45        -0.23182

 Excited State  15:      Singlet-A      7.1415 eV  173.61 nm  f=0.0000  <S**2>=0.000
      39 -> 46         0.11541
      39 -> 48        -0.13266
      42 -> 47         0.65391

 Excited State  16:      Singlet-A      7.3203 eV  169.37 nm  f=0.2038  <S**2>=0.000
      39 -> 45        -0.17212
      40 -> 43        -0.10189
      40 -> 47         0.46882
      40 -> 48        -0.11853
      41 -> 46         0.10185
      41 -> 47         0.36713
      41 -> 48         0.15587

 Excited State  17:      Singlet-A      7.3354 eV  169.02 nm  f=0.0000  <S**2>=0.000
      40 -> 47        -0.40936
      40 -> 48         0.17825
      41 -> 47         0.52404
      41 -> 48         0.13617

 Excited State  18:      Singlet-A      7.3659 eV  168.32 nm  f=0.7853  <S**2>=0.000
      39 -> 43         0.15373
      39 -> 45         0.33995
      40 -> 43         0.20342
      40 -> 44         0.12303
      40 -> 46         0.15241
      40 -> 47         0.24099
      41 -> 43         0.15704
      41 -> 44        -0.15572
      41 -> 46        -0.19689
      41 -> 47         0.18625
      42 -> 44        -0.19636
      42 -> 46         0.16569

 The electronic state is 1-A.
 Alpha  occ. eigenvalues --  -10.18788 -10.18786 -10.18752 -10.18751 -10.18712
 Alpha  occ. eigenvalues --  -10.18711 -10.18698 -10.18698 -10.18605 -10.18599
 Alpha  occ. eigenvalues --  -10.18549 -10.18548  -0.84292  -0.83963  -0.73491
 Alpha  occ. eigenvalues --   -0.73340  -0.73326  -0.73212  -0.59346  -0.59325
 Alpha  occ. eigenvalues --   -0.59322  -0.59296  -0.51874  -0.51757  -0.45373
 Alpha  occ. eigenvalues --   -0.45351  -0.44450  -0.44413  -0.41923  -0.41848
 Alpha  occ. eigenvalues --   -0.41835  -0.41787  -0.37592  -0.35242  -0.34274
 Alpha  occ. eigenvalues --   -0.34270  -0.34256  -0.34246  -0.26150  -0.25088
 Alpha  occ. eigenvalues --   -0.25087  -0.24220
 Alpha virt. eigenvalues --   -0.00680  -0.00525  -0.00465  -0.00345   0.05124
 Alpha virt. eigenvalues --    0.07069   0.08754   0.09389   0.11019   0.11411
 Alpha virt. eigenvalues --    0.13266   0.13375   0.14404   0.14717   0.15014

 Mulliken charges:
               1
     1  C    0.013810
     2  C    0.008937
     3  C    0.038813
     4  C    0.034242
     5  C    0.016941
     6  C    0.011990
     7  H   -0.020540
     8  H   -0.021739
     9  H   -0.020508
    10  H   -0.019357
    11  H   -0.021905
    12  H   -0.020671
    13  C    0.034308
    14  C    0.016862
    15  C    0.012005
    16  C    0.013784
    17  C    0.008972
    18  C    0.038820
    19  H   -0.019376
    20  H   -0.021912
    21  H   -0.020679
    22  H   -0.020540
    23  H   -0.021750
    24  H   -0.020506
 Sum of Mulliken charges =  -0.00000

 Dipole moment (field-independent basis, Debye):
    X=             -0.0003    Y=             -0.0000    Z=              0.0001  Tot=              0.0003
 Quadrupole moment (field-independent basis, Debye-Ang):
   XX=            -74.6814   YY=            -64.8337   ZZ=            -69.5483
   XY=              0.0005   XZ=              6.4386   YZ=             -0.0033

 Normal termination of Gaussian 16 at Sat May  7 20:26:06 2022.
