 Gaussian 16, Revision A.03,
 Gaussian 16:  ES64L-G16RevA.03 25-Dec-2016

 ----------------------------------
 #p TDA=(nstates=18) RB3LYP/def2SVP
 ----------------------------------

 ----------------
 benzeneDimer TDA
 ----------------
 Symbolic Z-matrix:
 Charge =  0 Multiplicity = 1

                         Standard orientation:
 ---------------------------------------------------------------------
 Center     Atomic      Atomic             Coordinates (Angstroms)
 Number     Number       Type             X           Y           Z
 ---------------------------------------------------------------------
      1          6           0       -2.647475   -0.543473   -0.711521
      2          6           0       -1.987044   -1.387011    0.186820
      3          6           0       -1.221108   -0.843604    1.223230
      4          6           0       -1.117423    0.542470    1.363026
      5          6           0       -1.780165    1.386791    0.466754
      6          6           0       -2.544441    0.844973   -0.570969
      7          1           0       -3.243081   -0.966949   -1.521192
      8          1           0       -2.063328   -2.469128    0.074672
      9          1           0       -0.691644   -1.500704    1.912652
     10          1           0       -0.504946    0.964659    2.159121
     11          1           0       -1.692981    2.468643    0.571744
     12          1           0       -3.059341    1.503536   -1.271552
     13          6           0        1.118192   -0.548339   -1.360487
     14          6           0        1.783966   -1.387572   -0.461680
     15          6           0        2.547491   -0.839882    0.573502
     16          6           0        2.646706    0.549349    0.708982
     17          6           0        1.983209    1.387783   -0.191870
     18          6           0        1.218059    0.838514   -1.225765
     19          1           0        0.506377   -0.975086   -2.154659
     20          1           0        1.699837   -2.470039   -0.562778
     21          1           0        3.064778   -1.494471    1.276047
     22          1           0        3.241754    0.977412    1.516649
     23          1           0        2.056495    2.470507   -0.083646
     24          1           0        0.686277    1.491627   -1.917184
 ---------------------------------------------------------------------

 SCF Done:  E(RB3LYP) =  -464.165941156     A.U. after   12 cycles

 Excitation energies and oscillator strengths:

 Excited State   1:      Singlet-A      5.4198 eV  228.76 nm  f=0.0000  <S**2>=0.000
      39 -> 44        -0.10428
      39 -> 46         0.14501
      40 -> 43        -0.15025
      40 -> 44        -0.22593
      40 -> 45         0.13427
      40 -> 46        -0.11897
      41 -> 43         0.19575
      41 -> 44        -0.16672
      41 -> 45        -0.17927
      42 -> 43         0.36771
      42 -> 45         0.34503
 This state for optimization and/or second-order correction.
 Total Energy, E(CIS/TDA) =  -463.966766487
 Copying the excited state density for this state as the 1-particle RhoCI density.

 Excited State   2:      Singlet-A      5.4379 eV  228.00 nm  f=0.0030  <S**2>=0.000
      39 -> 43         0.15514
      39 -> 45         0.14524
      40 -> 43        -0.20034
      40 -> 44        -0.17993
      40 -> 45         0.17428
      41 -> 43        -0.15793
      41 -> 44         0.22607
      41 -> 45         0.14074
      41 -> 46         0.13179
      42 -> 44        -0.26378
      42 -> 46         0.39752

 Excited State   3:      Singlet-A      5.9309 eV  209.05 nm  f=0.0000  <S**2>=0.000
      39 -> 44        -0.25564
      39 -> 46        -0.19099
      40 -> 43         0.10708
      41 -> 43        -0.13858
      42 -> 43         0.43195
      42 -> 45        -0.41489

 Excited State   4:      Singlet-A      5.9450 eV  208.55 nm  f=0.0096  <S**2>=0.000
      39 -> 43        -0.27890
      39 -> 45         0.19408
      42 -> 44         0.47717
      42 -> 46         0.36407

 Excited State   5:      Singlet-A      5.9693 eV  207.70 nm  f=0.0000  <S**2>=0.000
      40 -> 43        -0.29027
      40 -> 44         0.14794
      40 -> 46         0.32976
      41 -> 43         0.40060
      41 -> 44         0.12736
      41 -> 46         0.26950
      42 -> 45        -0.13174

 Excited State   6:      Singlet-A      5.9756 eV  207.49 nm  f=0.0024  <S**2>=0.000
      39 -> 45        -0.11076
      40 -> 43         0.38734
      40 -> 44        -0.15413
      40 -> 45        -0.15825
      40 -> 46        -0.23188
      41 -> 43         0.27374
      41 -> 44         0.22914
      41 -> 45        -0.13731
      41 -> 46         0.26460

 Excited State   7:      Singlet-A      5.9790 eV  207.37 nm  f=0.0000  <S**2>=0.000
      40 -> 44        -0.36216
      40 -> 45        -0.29399
      40 -> 46         0.14143
      41 -> 44        -0.29288
      41 -> 45         0.37955
      41 -> 46         0.14028

 Excited State   8:      Singlet-A      5.9913 eV  206.94 nm  f=0.0007  <S**2>=0.000
      40 -> 43         0.15327
      40 -> 44         0.24448
      40 -> 45         0.37810
      40 -> 46        -0.19041
      41 -> 43         0.11404
      41 -> 44        -0.30310
      41 -> 45         0.26278
      41 -> 46         0.23258

 Excited State   9:      Singlet-A      6.0574 eV  204.68 nm  f=0.0000  <S**2>=0.000
      39 -> 44        -0.29661
      39 -> 46         0.44072
      40 -> 44        -0.10005
      40 -> 46        -0.12990
      41 -> 45        -0.10782
      42 -> 43        -0.26881
      42 -> 45        -0.28551

 Excited State  10:      Singlet-A      6.0920 eV  203.52 nm  f=0.0718  <S**2>=0.000
      39 -> 43         0.37266
      39 -> 45         0.37885
      40 -> 44        -0.11069
      41 -> 44         0.14331
      41 -> 46         0.10888
      42 -> 44         0.26401
      42 -> 46        -0.29713

 Excited State  11:      Singlet-A      6.5032 eV  190.65 nm  f=0.0031  <S**2>=0.000
      39 -> 43        -0.32236
      39 -> 45         0.35564
      40 -> 43        -0.16795
      40 -> 44         0.10158
      40 -> 45        -0.18207
      40 -> 46        -0.19805
      41 -> 43        -0.12553
      41 -> 44        -0.12573
      41 -> 45        -0.14265
      41 -> 46         0.25172
      42 -> 44        -0.13126
      42 -> 46        -0.11136

 Excited State  12:      Singlet-A      6.5072 eV  190.53 nm  f=0.0000  <S**2>=0.000
      39 -> 44         0.37996
      39 -> 46         0.25251
      40 -> 43         0.13536
      40 -> 44        -0.14880
      40 -> 45         0.15828
      40 -> 46         0.25597
      41 -> 43        -0.17545
      41 -> 44        -0.11265
      41 -> 45        -0.21408
      41 -> 46         0.20009
      42 -> 45        -0.10282

 Excited State  13:      Singlet-A      7.1154 eV  174.25 nm  f=0.0000  <S**2>=0.000
      39 -> 48        -0.11920
      42 -> 47         0.68397

 Excited State  14:      Singlet-A      7.3322 eV  169.09 nm  f=0.0025  <S**2>=0.000
      40 -> 47         0.50920
      40 -> 48        -0.12720
      41 -> 47         0.43408
      41 -> 48         0.18220

 Excited State  15:      Singlet-A      7.3337 eV  169.06 nm  f=0.0000  <S**2>=0.000
      40 -> 47        -0.43328
      40 -> 48         0.17885
      41 -> 47         0.50799
      41 -> 48         0.12456

 Excited State  16:      Singlet-A      7.4902 eV  165.53 nm  f=0.0001  <S**2>=0.000
      39 -> 47         0.51144
      42 -> 48        -0.48523

 Excited State  17:      Singlet-A      7.4983 eV  165.35 nm  f=0.0000  <S**2>=0.000
      39 -> 44         0.24935
      39 -> 46         0.31324
      40 -> 44         0.18795
      40 -> 45        -0.17045
      40 -> 46        -0.15005
      41 -> 44         0.13851
      41 -> 45         0.22653
      41 -> 46        -0.11704
      42 -> 43         0.26527
      42 -> 45        -0.13437
      42 -> 47         0.11250

 Excited State  18:      Singlet-A      7.6381 eV  162.32 nm  f=0.0000  <S**2>=0.000
      39 -> 44         0.31271
      39 -> 46        -0.25699
      40 -> 43        -0.16756
      40 -> 44        -0.16549
      40 -> 46        -0.20746
      41 -> 43         0.21673
      41 -> 44        -0.12457
      41 -> 45        -0.11204
      41 -> 46        -0.15981
      42 -> 43        -0.10543
      42 -> 45        -0.24944

 The electronic state is 1-A.
 Alpha  occ. eigenvalues --  -10.18788 -10.18786 -10.18752 -10.18751 -10.18712
 Alpha  occ. eigenvalues --  -10.18711 -10.18698 -10.18698 -10.18605 -10.18599
 Alpha  occ. eigenvalues --  -10.18549 -10.18548  -0.84292  -0.83963  -0.73491
 Alpha  occ. eigenvalues --   -0.73340  -0.73326  -0.73212  -0.59346  -0.59325
 Alpha  occ. eigenvalues --   -0.59322  -0.59296  -0.51874  -0.51757  -0.45373
 Alpha  occ. eigenvalues --   -0.45351  -0.44450  -0.44413  -0.41923  -0.41848
 Alpha  occ. eigenvalues --   -0.41835  -0.41787  -0.37592  -0.35242  -0.34274
 Alpha  occ. eigenvalues --   -0.34270  -0.34256  -0.34246  -0.26150  -0.25088
 Alpha  occ. eigenvalues --   -0.25087  -0.24220
 Alpha virt. eigenvalues --   -0.00680  -0.00525  -0.00465  -0.00345   0.05124
 Alpha virt. eigenvalues --    0.07069   0.08754   0.09389   0.11019   0.11411
 Alpha virt. eigenvalues --    0.13266   0.13375   0.14404   0.14717   0.15014

 Mulliken charges:
               1
     1  C    0.013810
     2  C    0.008937
     3  C    0.038813
     4  C    0.034242
     5  C    0.016941
     6  C    0.011990
     7  H   -0.020540
     8  H   -0.021739
     9  H   -0.020508
    10  H   -0.019357
    11  H   -0.021905
    12  H   -0.020671
    13  C    0.034308
    14  C    0.016862
    15  C    0.012005
    16  C    0.013784
    17  C    0.008972
    18  C    0.038820
    19  H   -0.019376
    20  H   -0.021912
    21  H   -0.020679
    22  H   -0.020540
    23  H   -0.021750
    24  H   -0.020506
 Sum of Mulliken charges =  -0.00000

 Dipole moment (field-independent basis, Debye):
    X=             -0.0003    Y=             -0.0000    Z=              0.0001  Tot=              0.0003
 Quadrupole moment (field-independent basis, Debye-Ang):
   XX=            -74.6814   YY=            -64.8337   ZZ=            -69.5483
   XY=              0.0005   XZ=              6.4386   YZ=             -0.0033

 Normal termination of Gaussian 16 at Sat May  7 20:13:17 2022.
