                         Program Version 5.0.0 -  RELEASE  -
|  1> ! RHF cc-pVDZ Usesym pal8
|  2>
|  3> *xyz 0 1
|  4>  C                  0.17823418   -0.42164323    0.09565119
|  5>  C                  1.71823511   -0.42159910    0.09557290
|  6>  C                  2.39581061    0.75205293    0.09551743
|  7>  C                  1.62577918    2.08571050    0.09554027
|  8>  C                  0.27057274    2.08567496    0.09560319
|  9>  C                 -0.49939037    0.75197568    0.09566016
| 10>  C                 -0.29764057   -1.58554271   -0.79343964
| 11>  C                  0.94824467   -2.30482350   -1.34298703
| 12>  C                  2.19411771   -1.58546950   -0.79354640
| 13>  C                  3.29047211   -1.43602853   -1.57600328
| 14>  C                  3.64167728    0.92187162   -0.79363343
| 15>  C                  2.39573304    3.07979634   -0.79359880
| 16>  C                  1.71807245    3.95454959   -1.57601146
| 17>  C                  0.17807323    3.95450284   -1.57594943
| 18>  C                 -0.49948258    3.07971459   -0.79350035
| 19>  C                 -1.74536573    2.36036611   -1.34296092
| 20>  C                 -1.74530211    0.92174422   -0.79343253
| 21>  C                 -2.16407157   -0.10248057   -1.57583829
| 22>  C                 -1.39404387   -1.43614394   -1.57584190
| 23>  C                  0.94821837   -2.78840832   -2.60897537
| 24>  C                 -0.29770920   -2.61863957   -3.49806243
| 25>  C                 -1.39408517   -1.98566616   -3.01446536
| 26>  C                 -2.16414938   -0.99163127   -3.90356997
| 27>  C                 -2.64002792    0.17224245   -3.01444935
| 28>  C                 -2.64009316    1.43823148   -3.49803454
| 29>  C                 -2.16420539    2.60212618   -2.60894011
| 30>  C                 -1.39425314    3.59619146   -3.49808944
| 31>  C                 -0.29787072    4.22921858   -3.01456765
| 32>  C                  3.64162490    2.36049587   -1.34314427
| 33>  C                  2.19382128    3.19618464   -5.71927447
| 34>  C                  3.29022186    3.04678758   -4.93687678
| 35>  C                  4.06025620    1.71312889   -4.93687731
| 36>  C                  3.64148891    0.68889917   -5.71927852
| 37>  C                  2.39556326    0.85866399   -6.60836629
| 38>  C                  0.17794164    2.03224124   -6.60829905
| 39>  C                 -0.29793775    3.19611649   -5.71917848
| 40>  C                  0.94794358    3.91547025   -5.16973199
| 41>  C                  0.94798075    4.39904412   -3.90374283
| 42>  C                  2.19389569    4.22928771   -3.01466412
| 43>  C                  3.29026522    3.59630751   -3.49826617
| 44>  C                  4.53621920    1.43839705   -3.49826888
| 45>  C                  4.53628351    0.17240824   -3.01469400
| 46>  C                  4.06040419   -0.99148381   -3.90378394
| 47>  C                  3.64156049   -0.74972201   -5.16976724
| 48>  C                  2.39566533   -1.46907298   -5.71922364
| 49>  C                  1.62559666   -0.47504074   -6.60832906
| 50>  C                  0.27039476   -0.47507361   -6.60827661
| 51>  C                 -0.49962950    0.85858503   -6.60825947
| 52>  C                 -1.39429089    3.04667285   -4.93671591
| 53>  C                 -2.16426181    1.71297411   -4.93667364
| 54>  C                 -1.74548392    0.68876342   -5.71909678
| 55>  C                 -1.74542598   -0.74985794   -5.16957309
| 56>  C                 -0.49954852   -1.46914680   -5.71912001
| 57>  C                  0.17810642   -2.34389385   -4.93670439
| 58>  C                  1.71811031   -2.34386028   -4.93675859
| 59>  C                  2.19406394   -2.61858453   -3.49813556
| 60>  C                  3.29044415   -1.98556035   -3.01462044
| 61>  C                  4.06033885    2.60227132   -2.60915116
| 62>  C                  4.06045287   -0.10233677   -1.57605659
| 63>  C                  1.71793581    2.03228443   -6.60835736
| 64> *
| 65>
| 66>
| 67>
| 68>
| 69>                          ****END OF INPUT****

CARTESIAN COORDINATES (ANGSTROEM)
---------------------------------
  C      0.000000   -0.677600    3.588154
  C      1.245887   -1.447601    3.112268
  C      2.342267   -0.770000    2.693487
  C      2.342267    0.770000    2.693487
  C      1.245887    1.447601    3.112268
  C     -0.000000    0.677600    3.588154
  C     -1.245887   -1.447601    3.112268
  C     -0.770000   -2.693487    2.342267
  C      0.770000   -2.693487    2.342267
  C      1.447601   -3.112268    1.245887
  C      3.112268   -1.245887    1.447601
  C      3.112268    1.245887    1.447601
  C      2.693487    2.342267    0.770000
  C      1.447601    3.112268    1.245887
  C      0.770000    2.693487    2.342267
  C     -0.770000    2.693487    2.342267
  C     -1.245887    1.447601    3.112268
  C     -2.342267    0.770000    2.693487
  C     -2.342267   -0.770000    2.693487
  C     -1.447601   -3.112268    1.245887
  C     -2.693487   -2.342267    0.770000
  C     -3.112268   -1.245887    1.447601
  C     -3.588154   -0.000000    0.677600
  C     -3.112268    1.245887    1.447601
  C     -2.693487    2.342267    0.770000
  C     -1.447601    3.112268    1.245887
  C     -0.677600    3.588154    0.000000
  C      0.677600    3.588154   -0.000000
  C      3.588154    0.000000    0.677600
  C      1.245887    1.447601   -3.112268
  C      2.342267    0.770000   -2.693487
  C      2.342267   -0.770000   -2.693487
  C      1.245887   -1.447601   -3.112268
  C     -0.000000   -0.677600   -3.588154
  C     -1.245887    1.447601   -3.112268
  C     -0.770000    2.693487   -2.342267
  C      0.770000    2.693487   -2.342267
  C      1.447601    3.112268   -1.245887
  C      2.693487    2.342267   -0.770000
  C      3.112268    1.245887   -1.447601
  C      3.112268   -1.245887   -1.447601
  C      2.693487   -2.342267   -0.770000
  C      1.447601   -3.112268   -1.245887
  C      0.770000   -2.693487   -2.342267
  C     -0.770000   -2.693487   -2.342267
  C     -1.245887   -1.447601   -3.112268
  C     -2.342267   -0.770000   -2.693487
  C     -2.342267    0.770000   -2.693487
  C     -1.447601    3.112268   -1.245887
  C     -2.693487    2.342267   -0.770000
  C     -3.112268    1.245887   -1.447601
  C     -3.588154   -0.000000   -0.677600
  C     -3.112268   -1.245887   -1.447601
  C     -2.693487   -2.342267   -0.770000
  C     -1.447601   -3.112268   -1.245887
  C     -0.677600   -3.588154    0.000000
  C      0.677600   -3.588154   -0.000000
  C      3.588154    0.000000   -0.677600
  C      2.693487   -2.342267    0.770000
  C     -0.000000    0.677600   -3.588154

 Total Charge           Charge          ....    0
 Multiplicity           Mult            ....    1
 Number of Electrons    NEL             ....  360
 Basis Dimension        Dim             ....  840

ORBITAL ENERGIES
----------------

  NO   OCC          E(Eh)            E(eV)    Irrep
   0   2.0000     -11.311026      -307.7887    1-Ag
   1   2.0000     -11.310944      -307.7864    1-B2u
   2   2.0000     -11.310944      -307.7864    1-B3u
   3   2.0000     -11.310944      -307.7864    1-B1u
   4   2.0000     -11.310792      -307.7823    1-B3g
   5   2.0000     -11.310792      -307.7823    1-B2g
   6   2.0000     -11.310792      -307.7823    1-B1g
   7   2.0000     -11.310792      -307.7823    2-Ag
   8   2.0000     -11.310792      -307.7823    3-Ag
   9   2.0000     -11.310639      -307.7781    1-Au
  10   2.0000     -11.310639      -307.7781    2-B1u
  11   2.0000     -11.310639      -307.7781    2-B2u
  12   2.0000     -11.310639      -307.7781    2-B3u
  13   2.0000     -11.310493      -307.7742    3-B1u
  14   2.0000     -11.310493      -307.7742    3-B3u
  15   2.0000     -11.310493      -307.7742    3-B2u
  16   2.0000     -11.310420      -307.7722    2-B3g
  17   2.0000     -11.310420      -307.7722    2-B2g
  18   2.0000     -11.310420      -307.7722    2-B1g
  19   2.0000     -11.310420      -307.7722    4-Ag
  20   2.0000     -11.310324      -307.7696    3-B1g
  21   2.0000     -11.310324      -307.7696    3-B2g
  22   2.0000     -11.310324      -307.7696    3-B3g
  23   2.0000     -11.310324      -307.7696    5-Ag
  24   2.0000     -11.310324      -307.7696    6-Ag
  25   2.0000     -11.310280      -307.7684    2-Au
  26   2.0000     -11.310280      -307.7684    3-Au
  27   2.0000     -11.310280      -307.7684    4-B1u
  28   2.0000     -11.310280      -307.7684    4-B2u
  29   2.0000     -11.310280      -307.7684    4-B3u
  30   2.0000     -11.309296      -307.7416    5-B3u
  31   2.0000     -11.309296      -307.7416    5-B2u
  32   2.0000     -11.309296      -307.7416    5-B1u
  33   2.0000     -11.309213      -307.7393    4-B3g
  34   2.0000     -11.309213      -307.7393    4-B2g
  35   2.0000     -11.309213      -307.7393    4-B1g
  36   2.0000     -11.309144      -307.7374    7-Ag
  37   2.0000     -11.309144      -307.7374    8-Ag
  38   2.0000     -11.309143      -307.7374    5-B3g
  39   2.0000     -11.309143      -307.7374    5-B1g
  40   2.0000     -11.309143      -307.7374    5-B2g
  41   2.0000     -11.309097      -307.7362    6-B1u
  42   2.0000     -11.309097      -307.7362    6-B2u
  43   2.0000     -11.309097      -307.7362    6-B3u
  44   2.0000     -11.308946      -307.7321    4-Au
  45   2.0000     -11.308946      -307.7321    5-Au
  46   2.0000     -11.308946      -307.7321    7-B3u
  47   2.0000     -11.308946      -307.7321    7-B1u
  48   2.0000     -11.308946      -307.7321    7-B2u
  49   2.0000     -11.308788      -307.7278    9-Ag
  50   2.0000     -11.308788      -307.7278    6-B2g
  51   2.0000     -11.308788      -307.7278    6-B3g
  52   2.0000     -11.308788      -307.7278    6-B1g
  53   2.0000     -11.308543      -307.7211    6-Au
  54   2.0000     -11.308543      -307.7211    8-B1u
  55   2.0000     -11.308543      -307.7211    8-B3u
  56   2.0000     -11.308543      -307.7211    8-B2u
  57   2.0000     -11.308518      -307.7204    7-B2g
  58   2.0000     -11.308518      -307.7204    7-B1g
  59   2.0000     -11.308518      -307.7204    7-B3g
  60   2.0000      -1.266775       -34.4707   10-Ag
  61   2.0000      -1.243304       -33.8320    9-B1u
  62   2.0000      -1.243304       -33.8320    9-B3u
  63   2.0000      -1.243304       -33.8320    9-B2u
  64   2.0000      -1.197512       -32.5860    8-B3g
  65   2.0000      -1.197512       -32.5860    8-B2g
  66   2.0000      -1.197512       -32.5860    8-B1g
  67   2.0000      -1.197512       -32.5860   11-Ag
  68   2.0000      -1.197512       -32.5860   12-Ag
  69   2.0000      -1.131908       -30.8008    7-Au
  70   2.0000      -1.131908       -30.8008   10-B1u
  71   2.0000      -1.131908       -30.8008   10-B3u
  72   2.0000      -1.131908       -30.8008   10-B2u
  73   2.0000      -1.131714       -30.7955   11-B3u
  74   2.0000      -1.131714       -30.7955   11-B1u
  75   2.0000      -1.131714       -30.7955   11-B2u
  76   2.0000      -1.053981       -28.6803    9-B2g
  77   2.0000      -1.053981       -28.6803    9-B3g
  78   2.0000      -1.053981       -28.6803    9-B1g
  79   2.0000      -1.053981       -28.6803   13-Ag
  80   2.0000      -1.049565       -28.5601   14-Ag
  81   2.0000      -1.049565       -28.5601   15-Ag
  82   2.0000      -1.049565       -28.5601   10-B3g
  83   2.0000      -1.049565       -28.5601   10-B1g
  84   2.0000      -1.049565       -28.5601   10-B2g
  85   2.0000      -0.992003       -26.9938    8-Au
  86   2.0000      -0.992003       -26.9938    9-Au
  87   2.0000      -0.992003       -26.9938   12-B1u
  88   2.0000      -0.992003       -26.9938   12-B3u
  89   2.0000      -0.992003       -26.9938   12-B2u
  90   2.0000      -0.915514       -24.9124   13-B2u
  91   2.0000      -0.915514       -24.9124   13-B1u
  92   2.0000      -0.915514       -24.9124   13-B3u
  93   2.0000      -0.885254       -24.0890   14-B1u
  94   2.0000      -0.885254       -24.0890   14-B3u
  95   2.0000      -0.885254       -24.0890   14-B2u
  96   2.0000      -0.862691       -23.4750   11-B2g
  97   2.0000      -0.862691       -23.4750   11-B1g
  98   2.0000      -0.862691       -23.4750   11-B3g
  99   2.0000      -0.862691       -23.4750   16-Ag
 100   2.0000      -0.862691       -23.4750   17-Ag
 101   2.0000      -0.824659       -22.4401   12-B3g
 102   2.0000      -0.824659       -22.4401   12-B2g
 103   2.0000      -0.824659       -22.4401   12-B1g
 104   2.0000      -0.773285       -21.0421   18-Ag
 105   2.0000      -0.731675       -19.9099   19-Ag
 106   2.0000      -0.731675       -19.9099   13-B1g
 107   2.0000      -0.731675       -19.9099   13-B2g
 108   2.0000      -0.731675       -19.9099   13-B3g
 109   2.0000      -0.727153       -19.7868   10-Au
 110   2.0000      -0.727153       -19.7868   11-Au
 111   2.0000      -0.727153       -19.7868   15-B3u
 112   2.0000      -0.727153       -19.7868   15-B2u
 113   2.0000      -0.727153       -19.7868   15-B1u
 114   2.0000      -0.689434       -18.7604   16-B3u
 115   2.0000      -0.689434       -18.7604   16-B1u
 116   2.0000      -0.689434       -18.7604   16-B2u
 117   2.0000      -0.673087       -18.3156   17-B3u
 118   2.0000      -0.673087       -18.3156   17-B1u
 119   2.0000      -0.673087       -18.3156   17-B2u
 120   2.0000      -0.631439       -17.1823   20-Ag
 121   2.0000      -0.617483       -16.8026   18-B3u
 122   2.0000      -0.617483       -16.8026   18-B2u
 123   2.0000      -0.617483       -16.8026   18-B1u
 124   2.0000      -0.617482       -16.8026   12-Au
 125   2.0000      -0.616305       -16.7705   14-B2g
 126   2.0000      -0.616305       -16.7705   14-B3g
 127   2.0000      -0.616305       -16.7705   14-B1g
 128   2.0000      -0.616305       -16.7705   21-Ag
 129   2.0000      -0.616151       -16.7663   15-B1g
 130   2.0000      -0.616151       -16.7663   15-B2g
 131   2.0000      -0.616151       -16.7663   15-B3g
 132   2.0000      -0.616151       -16.7663   22-Ag
 133   2.0000      -0.616151       -16.7663   23-Ag
 134   2.0000      -0.601965       -16.3803   19-B3u
 135   2.0000      -0.601965       -16.3803   19-B2u
 136   2.0000      -0.601965       -16.3803   19-B1u
 137   2.0000      -0.570930       -15.5358   20-B3u
 138   2.0000      -0.570930       -15.5358   20-B2u
 139   2.0000      -0.570930       -15.5358   20-B1u
 140   2.0000      -0.570930       -15.5358   13-Au
 141   2.0000      -0.557913       -15.1816   16-B1g
 142   2.0000      -0.557913       -15.1816   16-B3g
 143   2.0000      -0.557913       -15.1816   16-B2g
 144   2.0000      -0.545181       -14.8351   17-B1g
 145   2.0000      -0.545181       -14.8351   17-B3g
 146   2.0000      -0.545181       -14.8351   17-B2g
 147   2.0000      -0.545181       -14.8351   24-Ag
 148   2.0000      -0.545181       -14.8351   25-Ag
 149   2.0000      -0.492646       -13.4056   26-Ag
 150   2.0000      -0.492646       -13.4056   27-Ag
 151   2.0000      -0.492646       -13.4056   18-B2g
 152   2.0000      -0.492646       -13.4056   18-B1g
 153   2.0000      -0.492646       -13.4056   18-B3g
 154   2.0000      -0.478516       -13.0211   21-B3u
 155   2.0000      -0.478516       -13.0211   21-B2u
 156   2.0000      -0.478516       -13.0211   21-B1u
 157   2.0000      -0.478516       -13.0211   14-Au
 158   2.0000      -0.478516       -13.0211   15-Au
 159   2.0000      -0.467131       -12.7113   16-Au
 160   2.0000      -0.467131       -12.7113   22-B3u
 161   2.0000      -0.467131       -12.7113   22-B1u
 162   2.0000      -0.467131       -12.7113   22-B2u
 163   2.0000      -0.454482       -12.3671   23-B2u
 164   2.0000      -0.454482       -12.3671   23-B3u
 165   2.0000      -0.454482       -12.3671   23-B1u
 166   2.0000      -0.376832       -10.2541   19-B1g
 167   2.0000      -0.376832       -10.2541   19-B3g
 168   2.0000      -0.376832       -10.2541   19-B2g
 169   2.0000      -0.376832       -10.2541   28-Ag
 170   2.0000      -0.354623        -9.6498   20-B3g
 171   2.0000      -0.354623        -9.6498   20-B2g
 172   2.0000      -0.354623        -9.6498   20-B1g
 173   2.0000      -0.354623        -9.6498   29-Ag
 174   2.0000      -0.354623        -9.6498   30-Ag
 175   2.0000      -0.309902        -8.4329   17-Au
 176   2.0000      -0.309902        -8.4329   18-Au
 177   2.0000      -0.309902        -8.4329   24-B3u
 178   2.0000      -0.309902        -8.4329   24-B1u
 179   2.0000      -0.309902        -8.4329   24-B2u
 180   0.0000       0.000925         0.0252   25-B3u
 181   0.0000       0.000925         0.0252   25-B1u
 182   0.0000       0.000925         0.0252   25-B2u
 183   0.0000       0.060277         1.6402   21-B2g
 184   0.0000       0.060277         1.6402   21-B3g

MULLIKEN ATOMIC CHARGES
-----------------------
   0 C :    0.000001
   1 C :    0.000001
   2 C :   -0.000001
   3 C :   -0.000001
   4 C :    0.000001
   5 C :    0.000001
   6 C :    0.000001
   7 C :   -0.000001
   8 C :   -0.000001
   9 C :    0.000001
  10 C :    0.000001
  11 C :    0.000001
  12 C :   -0.000001
  13 C :    0.000001
  14 C :   -0.000001
  15 C :   -0.000001
  16 C :    0.000001
  17 C :   -0.000001
  18 C :   -0.000001
  19 C :    0.000001
  20 C :   -0.000001
  21 C :    0.000001
  22 C :    0.000001
  23 C :    0.000001
  24 C :   -0.000001
  25 C :    0.000001
  26 C :    0.000001
  27 C :    0.000001
  28 C :    0.000001
  29 C :    0.000001
  30 C :   -0.000001
  31 C :   -0.000001
  32 C :    0.000001
  33 C :    0.000001
  34 C :    0.000001
  35 C :   -0.000001
  36 C :   -0.000001
  37 C :    0.000001
  38 C :   -0.000001
  39 C :    0.000001
  40 C :    0.000001
  41 C :   -0.000001
  42 C :    0.000001
  43 C :   -0.000001
  44 C :   -0.000001
  45 C :    0.000001
  46 C :   -0.000001
  47 C :   -0.000001
  48 C :    0.000001
  49 C :   -0.000001
  50 C :    0.000001
  51 C :    0.000001
  52 C :    0.000001
  53 C :   -0.000001
  54 C :    0.000001
  55 C :    0.000001
  56 C :    0.000001
  57 C :    0.000001
  58 C :   -0.000001
  59 C :    0.000001
Sum of atomic charges:    0.0000000

LOEWDIN ATOMIC CHARGES
----------------------
   0 C :    0.000000
   1 C :   -0.000000
   2 C :   -0.000000
   3 C :   -0.000000
   4 C :   -0.000000
   5 C :    0.000000
   6 C :   -0.000000
   7 C :   -0.000000
   8 C :   -0.000000
   9 C :   -0.000000
  10 C :   -0.000000
  11 C :   -0.000000
  12 C :   -0.000000
  13 C :   -0.000000
  14 C :   -0.000000
  15 C :   -0.000000
  16 C :   -0.000000
  17 C :   -0.000000
  18 C :   -0.000000
  19 C :   -0.000000
  20 C :   -0.000000
  21 C :   -0.000000
  22 C :    0.000000
  23 C :   -0.000000
  24 C :   -0.000000
  25 C :   -0.000000
  26 C :    0.000000
  27 C :    0.000000
  28 C :    0.000000
  29 C :   -0.000000
  30 C :   -0.000000
  31 C :   -0.000000
  32 C :   -0.000000
  33 C :    0.000000
  34 C :   -0.000000
  35 C :   -0.000000
  36 C :   -0.000000
  37 C :   -0.000000
  38 C :   -0.000000
  39 C :   -0.000000
  40 C :   -0.000000
  41 C :   -0.000000
  42 C :   -0.000000
  43 C :   -0.000000
  44 C :   -0.000000
  45 C :   -0.000000
  46 C :   -0.000000
  47 C :   -0.000000
  48 C :   -0.000000
  49 C :   -0.000000
  50 C :   -0.000000
  51 C :    0.000000
  52 C :   -0.000000
  53 C :   -0.000000
  54 C :   -0.000000
  55 C :    0.000000
  56 C :    0.000000
  57 C :    0.000000
  58 C :   -0.000000
  59 C :    0.000000

  Mayer bond orders larger than 0.100000
B(  0-C ,  1-C ) :   1.1236 B(  0-C ,  5-C ) :   1.5706 B(  0-C ,  6-C ) :   1.1236
B(  1-C ,  2-C ) :   1.5706 B(  1-C ,  8-C ) :   1.1236 B(  2-C ,  3-C ) :   1.1236
B(  2-C , 10-C ) :   1.1236 B(  3-C ,  4-C ) :   1.5706 B(  3-C , 11-C ) :   1.1236
B(  4-C ,  5-C ) :   1.1236 B(  4-C , 14-C ) :   1.1236 B(  5-C , 16-C ) :   1.1236
B(  6-C ,  7-C ) :   1.1236 B(  6-C , 18-C ) :   1.5706 B(  7-C ,  8-C ) :   1.1236
B(  7-C , 19-C ) :   1.5706 B(  8-C ,  9-C ) :   1.5706 B(  9-C , 56-C ) :   1.1236
B(  9-C , 58-C ) :   1.1236 B( 10-C , 28-C ) :   1.1236 B( 10-C , 58-C ) :   1.5706
B( 11-C , 12-C ) :   1.5706 B( 11-C , 28-C ) :   1.1236 B( 12-C , 13-C ) :   1.1236
B( 12-C , 38-C ) :   1.1236 B( 13-C , 14-C ) :   1.5706 B( 13-C , 27-C ) :   1.1236
B( 14-C , 15-C ) :   1.1236 B( 15-C , 16-C ) :   1.1236 B( 15-C , 25-C ) :   1.5706
B( 16-C , 17-C ) :   1.5706 B( 17-C , 18-C ) :   1.1236 B( 17-C , 23-C ) :   1.1236
B( 18-C , 21-C ) :   1.1236 B( 19-C , 20-C ) :   1.1236 B( 19-C , 55-C ) :   1.1236
B( 20-C , 21-C ) :   1.5706 B( 20-C , 53-C ) :   1.1236 B( 21-C , 22-C ) :   1.1236
B( 22-C , 23-C ) :   1.1236 B( 22-C , 51-C ) :   1.5706 B( 23-C , 24-C ) :   1.5706
B( 24-C , 25-C ) :   1.1236 B( 24-C , 49-C ) :   1.1236 B( 25-C , 26-C ) :   1.1236
B( 26-C , 27-C ) :   1.5706 B( 26-C , 48-C ) :   1.1236 B( 27-C , 37-C ) :   1.1236
B( 28-C , 57-C ) :   1.5706 B( 29-C , 30-C ) :   1.5706 B( 29-C , 36-C ) :   1.1236
B( 29-C , 59-C ) :   1.1236 B( 30-C , 31-C ) :   1.1236 B( 30-C , 39-C ) :   1.1236
B( 31-C , 32-C ) :   1.5706 B( 31-C , 40-C ) :   1.1236 B( 32-C , 33-C ) :   1.1236
B( 32-C , 43-C ) :   1.1236 B( 33-C , 45-C ) :   1.1236 B( 33-C , 59-C ) :   1.5706
B( 34-C , 35-C ) :   1.1236 B( 34-C , 47-C ) :   1.5706 B( 34-C , 59-C ) :   1.1236
B( 35-C , 36-C ) :   1.1236 B( 35-C , 48-C ) :   1.5706 B( 36-C , 37-C ) :   1.5706
B( 37-C , 38-C ) :   1.1236 B( 38-C , 39-C ) :   1.5706 B( 39-C , 57-C ) :   1.1236
B( 40-C , 41-C ) :   1.5706 B( 40-C , 57-C ) :   1.1236 B( 41-C , 42-C ) :   1.1236
B( 41-C , 58-C ) :   1.1236 B( 42-C , 43-C ) :   1.5706 B( 42-C , 56-C ) :   1.1236
B( 43-C , 44-C ) :   1.1236 B( 44-C , 45-C ) :   1.1236 B( 44-C , 54-C ) :   1.5706
B( 45-C , 46-C ) :   1.5706 B( 46-C , 47-C ) :   1.1236 B( 46-C , 52-C ) :   1.1236
B( 47-C , 50-C ) :   1.1236 B( 48-C , 49-C ) :   1.1236 B( 49-C , 50-C ) :   1.5706
B( 50-C , 51-C ) :   1.1236 B( 51-C , 52-C ) :   1.1236 B( 52-C , 53-C ) :   1.5706
B( 53-C , 54-C ) :   1.1236 B( 54-C , 55-C ) :   1.1236 B( 55-C , 56-C ) :   1.5706

FINAL SINGLE POINT ENERGY     -2271.685994938395

DIPOLE MOMENT
-------------
                                X             Y             Z
Electronic contribution:     -0.00000       0.00000      -0.00000
Nuclear contribution   :      0.00000      -0.00000       0.00000
                        -----------------------------------------
Total Dipole Moment    :     -0.00000       0.00000      -0.00000
                        -----------------------------------------
Magnitude (a.u.)       :      0.00000
Magnitude (Debye)      :      0.00000

Rotational constants in cm-1:     0.002631     0.002631     0.002631
Rotational constants in MHz :    78.889333    78.889333    78.889333

                             ****ORCA TERMINATED NORMALLY****
TOTAL RUN TIME: 0 days 0 hours 16 minutes 25 seconds 450 msec
