                         Program Version 5.0.0 -  RELEASE  -
|  1> ! RHF cc-pVDZ noUsesym pal8
|  2>
|  3> *xyz 0 1
|  4>  C                  0.17823418   -0.42164323    0.09565119
|  5>  C                  1.71823511   -0.42159910    0.09557290
|  6>  C                  2.39581061    0.75205293    0.09551743
|  7>  C                  1.62577918    2.08571050    0.09554027
|  8>  C                  0.27057274    2.08567496    0.09560319
|  9>  C                 -0.49939037    0.75197568    0.09566016
| 10>  C                 -0.29764057   -1.58554271   -0.79343964
| 11>  C                  0.94824467   -2.30482350   -1.34298703
| 12>  C                  2.19411771   -1.58546950   -0.79354640
| 13>  C                  3.29047211   -1.43602853   -1.57600328
| 14>  C                  3.64167728    0.92187162   -0.79363343
| 15>  C                  2.39573304    3.07979634   -0.79359880
| 16>  C                  1.71807245    3.95454959   -1.57601146
| 17>  C                  0.17807323    3.95450284   -1.57594943
| 18>  C                 -0.49948258    3.07971459   -0.79350035
| 19>  C                 -1.74536573    2.36036611   -1.34296092
| 20>  C                 -1.74530211    0.92174422   -0.79343253
| 21>  C                 -2.16407157   -0.10248057   -1.57583829
| 22>  C                 -1.39404387   -1.43614394   -1.57584190
| 23>  C                  0.94821837   -2.78840832   -2.60897537
| 24>  C                 -0.29770920   -2.61863957   -3.49806243
| 25>  C                 -1.39408517   -1.98566616   -3.01446536
| 26>  C                 -2.16414938   -0.99163127   -3.90356997
| 27>  C                 -2.64002792    0.17224245   -3.01444935
| 28>  C                 -2.64009316    1.43823148   -3.49803454
| 29>  C                 -2.16420539    2.60212618   -2.60894011
| 30>  C                 -1.39425314    3.59619146   -3.49808944
| 31>  C                 -0.29787072    4.22921858   -3.01456765
| 32>  C                  3.64162490    2.36049587   -1.34314427
| 33>  C                  2.19382128    3.19618464   -5.71927447
| 34>  C                  3.29022186    3.04678758   -4.93687678
| 35>  C                  4.06025620    1.71312889   -4.93687731
| 36>  C                  3.64148891    0.68889917   -5.71927852
| 37>  C                  2.39556326    0.85866399   -6.60836629
| 38>  C                  0.17794164    2.03224124   -6.60829905
| 39>  C                 -0.29793775    3.19611649   -5.71917848
| 40>  C                  0.94794358    3.91547025   -5.16973199
| 41>  C                  0.94798075    4.39904412   -3.90374283
| 42>  C                  2.19389569    4.22928771   -3.01466412
| 43>  C                  3.29026522    3.59630751   -3.49826617
| 44>  C                  4.53621920    1.43839705   -3.49826888
| 45>  C                  4.53628351    0.17240824   -3.01469400
| 46>  C                  4.06040419   -0.99148381   -3.90378394
| 47>  C                  3.64156049   -0.74972201   -5.16976724
| 48>  C                  2.39566533   -1.46907298   -5.71922364
| 49>  C                  1.62559666   -0.47504074   -6.60832906
| 50>  C                  0.27039476   -0.47507361   -6.60827661
| 51>  C                 -0.49962950    0.85858503   -6.60825947
| 52>  C                 -1.39429089    3.04667285   -4.93671591
| 53>  C                 -2.16426181    1.71297411   -4.93667364
| 54>  C                 -1.74548392    0.68876342   -5.71909678
| 55>  C                 -1.74542598   -0.74985794   -5.16957309
| 56>  C                 -0.49954852   -1.46914680   -5.71912001
| 57>  C                  0.17810642   -2.34389385   -4.93670439
| 58>  C                  1.71811031   -2.34386028   -4.93675859
| 59>  C                  2.19406394   -2.61858453   -3.49813556
| 60>  C                  3.29044415   -1.98556035   -3.01462044
| 61>  C                  4.06033885    2.60227132   -2.60915116
| 62>  C                  4.06045287   -0.10233677   -1.57605659
| 63>  C                  1.71793581    2.03228443   -6.60835736
| 64> *
| 65>
| 66>
| 67>                          ****END OF INPUT****

CARTESIAN COORDINATES (ANGSTROEM)
---------------------------------
  C      0.178234   -0.421643    0.095651
  C      1.718235   -0.421599    0.095573
  C      2.395811    0.752053    0.095517
  C      1.625779    2.085710    0.095540
  C      0.270573    2.085675    0.095603
  C     -0.499390    0.751976    0.095660
  C     -0.297641   -1.585543   -0.793440
  C      0.948245   -2.304823   -1.342987
  C      2.194118   -1.585469   -0.793546
  C      3.290472   -1.436029   -1.576003
  C      3.641677    0.921872   -0.793633
  C      2.395733    3.079796   -0.793599
  C      1.718072    3.954550   -1.576011
  C      0.178073    3.954503   -1.575949
  C     -0.499483    3.079715   -0.793500
  C     -1.745366    2.360366   -1.342961
  C     -1.745302    0.921744   -0.793433
  C     -2.164072   -0.102481   -1.575838
  C     -1.394044   -1.436144   -1.575842
  C      0.948218   -2.788408   -2.608975
  C     -0.297709   -2.618640   -3.498062
  C     -1.394085   -1.985666   -3.014465
  C     -2.164149   -0.991631   -3.903570
  C     -2.640028    0.172242   -3.014449
  C     -2.640093    1.438231   -3.498035
  C     -2.164205    2.602126   -2.608940
  C     -1.394253    3.596191   -3.498089
  C     -0.297871    4.229219   -3.014568
  C      3.641625    2.360496   -1.343144
  C      2.193821    3.196185   -5.719274
  C      3.290222    3.046788   -4.936877
  C      4.060256    1.713129   -4.936877
  C      3.641489    0.688899   -5.719279
  C      2.395563    0.858664   -6.608366
  C      0.177942    2.032241   -6.608299
  C     -0.297938    3.196116   -5.719178
  C      0.947944    3.915470   -5.169732
  C      0.947981    4.399044   -3.903743
  C      2.193896    4.229288   -3.014664
  C      3.290265    3.596308   -3.498266
  C      4.536219    1.438397   -3.498269
  C      4.536284    0.172408   -3.014694
  C      4.060404   -0.991484   -3.903784
  C      3.641560   -0.749722   -5.169767
  C      2.395665   -1.469073   -5.719224
  C      1.625597   -0.475041   -6.608329
  C      0.270395   -0.475074   -6.608277
  C     -0.499629    0.858585   -6.608259
  C     -1.394291    3.046673   -4.936716
  C     -2.164262    1.712974   -4.936674
  C     -1.745484    0.688763   -5.719097
  C     -1.745426   -0.749858   -5.169573
  C     -0.499549   -1.469147   -5.719120
  C      0.178106   -2.343894   -4.936704
  C      1.718110   -2.343860   -4.936759
  C      2.194064   -2.618585   -3.498136
  C      3.290444   -1.985560   -3.014620
  C      4.060339    2.602271   -2.609151
  C      4.060453   -0.102337   -1.576057
  C      1.717936    2.032284   -6.608357

 Total Charge           Charge          ....    0
 Multiplicity           Mult            ....    1
 Number of Electrons    NEL             ....  360
 Basis Dimension        Dim             ....  840

ORBITAL ENERGIES
----------------

  NO   OCC          E(Eh)            E(eV)
   0   2.0000     -11.311026      -307.7887
   1   2.0000     -11.310944      -307.7864
   2   2.0000     -11.310944      -307.7864
   3   2.0000     -11.310943      -307.7864
   4   2.0000     -11.310793      -307.7823
   5   2.0000     -11.310793      -307.7823
   6   2.0000     -11.310792      -307.7823
   7   2.0000     -11.310792      -307.7823
   8   2.0000     -11.310791      -307.7823
   9   2.0000     -11.310640      -307.7782
  10   2.0000     -11.310639      -307.7781
  11   2.0000     -11.310639      -307.7781
  12   2.0000     -11.310639      -307.7781
  13   2.0000     -11.310494      -307.7742
  14   2.0000     -11.310493      -307.7742
  15   2.0000     -11.310493      -307.7741
  16   2.0000     -11.310421      -307.7722
  17   2.0000     -11.310420      -307.7722
  18   2.0000     -11.310420      -307.7722
  19   2.0000     -11.310420      -307.7722
  20   2.0000     -11.310324      -307.7696
  21   2.0000     -11.310324      -307.7696
  22   2.0000     -11.310324      -307.7696
  23   2.0000     -11.310323      -307.7695
  24   2.0000     -11.310323      -307.7695
  25   2.0000     -11.310281      -307.7684
  26   2.0000     -11.310281      -307.7684
  27   2.0000     -11.310280      -307.7684
  28   2.0000     -11.310280      -307.7684
  29   2.0000     -11.310280      -307.7684
  30   2.0000     -11.309297      -307.7416
  31   2.0000     -11.309296      -307.7416
  32   2.0000     -11.309296      -307.7416
  33   2.0000     -11.309214      -307.7394
  34   2.0000     -11.309213      -307.7393
  35   2.0000     -11.309213      -307.7393
  36   2.0000     -11.309144      -307.7375
  37   2.0000     -11.309144      -307.7375
  38   2.0000     -11.309143      -307.7374
  39   2.0000     -11.309143      -307.7374
  40   2.0000     -11.309143      -307.7374
  41   2.0000     -11.309097      -307.7362
  42   2.0000     -11.309097      -307.7362
  43   2.0000     -11.309097      -307.7362
  44   2.0000     -11.308947      -307.7321
  45   2.0000     -11.308946      -307.7321
  46   2.0000     -11.308946      -307.7321
  47   2.0000     -11.308946      -307.7321
  48   2.0000     -11.308946      -307.7321
  49   2.0000     -11.308788      -307.7278
  50   2.0000     -11.308788      -307.7278
  51   2.0000     -11.308788      -307.7278
  52   2.0000     -11.308788      -307.7278
  53   2.0000     -11.308544      -307.7211
  54   2.0000     -11.308543      -307.7211
  55   2.0000     -11.308542      -307.7211
  56   2.0000     -11.308542      -307.7211
  57   2.0000     -11.308519      -307.7204
  58   2.0000     -11.308518      -307.7204
  59   2.0000     -11.308518      -307.7204
  60   2.0000      -1.266775       -34.4707
  61   2.0000      -1.243305       -33.8320
  62   2.0000      -1.243304       -33.8320
  63   2.0000      -1.243303       -33.8320
  64   2.0000      -1.197514       -32.5860
  65   2.0000      -1.197512       -32.5860
  66   2.0000      -1.197512       -32.5860
  67   2.0000      -1.197512       -32.5860
  68   2.0000      -1.197511       -32.5859
  69   2.0000      -1.131909       -30.8008
  70   2.0000      -1.131908       -30.8008
  71   2.0000      -1.131907       -30.8008
  72   2.0000      -1.131907       -30.8008
  73   2.0000      -1.131715       -30.7955
  74   2.0000      -1.131715       -30.7955
  75   2.0000      -1.131713       -30.7955
  76   2.0000      -1.053982       -28.6803
  77   2.0000      -1.053981       -28.6803
  78   2.0000      -1.053981       -28.6803
  79   2.0000      -1.053980       -28.6803
  80   2.0000      -1.049567       -28.5602
  81   2.0000      -1.049566       -28.5601
  82   2.0000      -1.049565       -28.5601
  83   2.0000      -1.049564       -28.5601
  84   2.0000      -1.049564       -28.5601
  85   2.0000      -0.992005       -26.9938
  86   2.0000      -0.992004       -26.9938
  87   2.0000      -0.992003       -26.9938
  88   2.0000      -0.992003       -26.9938
  89   2.0000      -0.992002       -26.9937
  90   2.0000      -0.915515       -24.9124
  91   2.0000      -0.915514       -24.9124
  92   2.0000      -0.915514       -24.9124
  93   2.0000      -0.885254       -24.0890
  94   2.0000      -0.885254       -24.0890
  95   2.0000      -0.885254       -24.0890
  96   2.0000      -0.862693       -23.4751
  97   2.0000      -0.862692       -23.4750
  98   2.0000      -0.862691       -23.4750
  99   2.0000      -0.862690       -23.4750
 100   2.0000      -0.862690       -23.4750
 101   2.0000      -0.824660       -22.4401
 102   2.0000      -0.824659       -22.4401
 103   2.0000      -0.824657       -22.4401
 104   2.0000      -0.773285       -21.0421
 105   2.0000      -0.731676       -19.9099
 106   2.0000      -0.731675       -19.9099
 107   2.0000      -0.731674       -19.9099
 108   2.0000      -0.731674       -19.9099
 109   2.0000      -0.727154       -19.7869
 110   2.0000      -0.727154       -19.7869
 111   2.0000      -0.727153       -19.7868
 112   2.0000      -0.727151       -19.7868
 113   2.0000      -0.727151       -19.7868
 114   2.0000      -0.689435       -18.7605
 115   2.0000      -0.689433       -18.7604
 116   2.0000      -0.689433       -18.7604
 117   2.0000      -0.673087       -18.3156
 118   2.0000      -0.673087       -18.3156
 119   2.0000      -0.673086       -18.3156
 120   2.0000      -0.631439       -17.1823
 121   2.0000      -0.617484       -16.8026
 122   2.0000      -0.617483       -16.8026
 123   2.0000      -0.617482       -16.8025
 124   2.0000      -0.617481       -16.8025
 125   2.0000      -0.616306       -16.7706
 126   2.0000      -0.616306       -16.7705
 127   2.0000      -0.616305       -16.7705
 128   2.0000      -0.616305       -16.7705
 129   2.0000      -0.616153       -16.7664
 130   2.0000      -0.616152       -16.7663
 131   2.0000      -0.616151       -16.7663
 132   2.0000      -0.616150       -16.7663
 133   2.0000      -0.616150       -16.7663
 134   2.0000      -0.601966       -16.3803
 135   2.0000      -0.601965       -16.3803
 136   2.0000      -0.601965       -16.3803
 137   2.0000      -0.570931       -15.5358
 138   2.0000      -0.570931       -15.5358
 139   2.0000      -0.570930       -15.5358
 140   2.0000      -0.570928       -15.5357
 141   2.0000      -0.557914       -15.1816
 142   2.0000      -0.557912       -15.1816
 143   2.0000      -0.557912       -15.1815
 144   2.0000      -0.545182       -14.8352
 145   2.0000      -0.545181       -14.8351
 146   2.0000      -0.545181       -14.8351
 147   2.0000      -0.545180       -14.8351
 148   2.0000      -0.545180       -14.8351
 149   2.0000      -0.492647       -13.4056
 150   2.0000      -0.492647       -13.4056
 151   2.0000      -0.492645       -13.4056
 152   2.0000      -0.492645       -13.4056
 153   2.0000      -0.492645       -13.4055
 154   2.0000      -0.478517       -13.0211
 155   2.0000      -0.478517       -13.0211
 156   2.0000      -0.478516       -13.0211
 157   2.0000      -0.478514       -13.0210
 158   2.0000      -0.478514       -13.0210
 159   2.0000      -0.467132       -12.7113
 160   2.0000      -0.467131       -12.7113
 161   2.0000      -0.467130       -12.7113
 162   2.0000      -0.467130       -12.7113
 163   2.0000      -0.454483       -12.3671
 164   2.0000      -0.454483       -12.3671
 165   2.0000      -0.454481       -12.3671
 166   2.0000      -0.376833       -10.2541
 167   2.0000      -0.376832       -10.2541
 168   2.0000      -0.376831       -10.2541
 169   2.0000      -0.376831       -10.2541
 170   2.0000      -0.354625        -9.6498
 171   2.0000      -0.354623        -9.6498
 172   2.0000      -0.354623        -9.6498
 173   2.0000      -0.354621        -9.6497
 174   2.0000      -0.354621        -9.6497
 175   2.0000      -0.309904        -8.4329
 176   2.0000      -0.309902        -8.4329
 177   2.0000      -0.309902        -8.4329
 178   2.0000      -0.309902        -8.4329
 179   2.0000      -0.309901        -8.4328
 180   0.0000       0.000923         0.0251
 181   0.0000       0.000926         0.0252
 182   0.0000       0.000926         0.0252
 183   0.0000       0.060275         1.6402
 184   0.0000       0.060277         1.6402

MULLIKEN ATOMIC CHARGES
-----------------------
   0 C :    0.000002
   1 C :   -0.000002
   2 C :    0.000001
   3 C :    0.000003
   4 C :   -0.000009
   5 C :    0.000003
   6 C :   -0.000007
   7 C :    0.000005
   8 C :    0.000006
   9 C :   -0.000001
  10 C :    0.000003
  11 C :   -0.000004
  12 C :   -0.000003
  13 C :    0.000003
  14 C :    0.000003
  15 C :    0.000001
  16 C :   -0.000005
  17 C :    0.000006
  18 C :    0.000007
  19 C :   -0.000005
  20 C :    0.000001
  21 C :   -0.000002
  22 C :    0.000003
  23 C :    0.000002
  24 C :   -0.000006
  25 C :   -0.000002
  26 C :   -0.000002
  27 C :   -0.000002
  28 C :   -0.000007
  29 C :   -0.000007
  30 C :    0.000014
  31 C :   -0.000000
  32 C :   -0.000001
  33 C :   -0.000005
  34 C :    0.000003
  35 C :   -0.000000
  36 C :    0.000003
  37 C :   -0.000000
  38 C :    0.000004
  39 C :   -0.000002
  40 C :    0.000005
  41 C :   -0.000000
  42 C :   -0.000007
  43 C :    0.000001
  44 C :   -0.000004
  45 C :   -0.000002
  46 C :    0.000001
  47 C :   -0.000001
  48 C :   -0.000001
  49 C :   -0.000001
  50 C :    0.000000
  51 C :   -0.000000
  52 C :   -0.000002
  53 C :    0.000007
  54 C :   -0.000005
  55 C :    0.000007
  56 C :   -0.000004
  57 C :    0.000004
  58 C :   -0.000001
  59 C :    0.000004
Sum of atomic charges:   -0.0000000

LOEWDIN ATOMIC CHARGES
----------------------
   0 C :    0.000001
   1 C :    0.000000
   2 C :   -0.000000
   3 C :    0.000000
   4 C :   -0.000002
   5 C :   -0.000002
   6 C :   -0.000001
   7 C :    0.000001
   8 C :   -0.000000
   9 C :    0.000001
  10 C :   -0.000000
  11 C :    0.000000
  12 C :    0.000002
  13 C :   -0.000001
  14 C :   -0.000000
  15 C :    0.000001
  16 C :   -0.000000
  17 C :   -0.000001
  18 C :    0.000003
  19 C :    0.000001
  20 C :    0.000001
  21 C :   -0.000001
  22 C :   -0.000001
  23 C :    0.000002
  24 C :   -0.000001
  25 C :   -0.000001
  26 C :   -0.000001
  27 C :    0.000001
  28 C :   -0.000002
  29 C :    0.000000
  30 C :   -0.000000
  31 C :    0.000000
  32 C :   -0.000001
  33 C :    0.000001
  34 C :    0.000001
  35 C :    0.000001
  36 C :   -0.000001
  37 C :    0.000002
  38 C :   -0.000001
  39 C :    0.000001
  40 C :    0.000002
  41 C :   -0.000002
  42 C :    0.000001
  43 C :    0.000000
  44 C :   -0.000001
  45 C :   -0.000001
  46 C :   -0.000002
  47 C :   -0.000001
  48 C :    0.000001
  49 C :   -0.000001
  50 C :    0.000001
  51 C :   -0.000001
  52 C :   -0.000001
  53 C :    0.000001
  54 C :    0.000003
  55 C :   -0.000002
  56 C :    0.000000
  57 C :    0.000001
  58 C :   -0.000000
  59 C :   -0.000001

  Mayer bond orders larger than 0.100000
B(  0-C ,  1-C ) :   1.1236 B(  0-C ,  5-C ) :   1.5706 B(  0-C ,  6-C ) :   1.1236
B(  1-C ,  2-C ) :   1.5706 B(  1-C ,  8-C ) :   1.1236 B(  2-C ,  3-C ) :   1.1236
B(  2-C , 10-C ) :   1.1236 B(  3-C ,  4-C ) :   1.5706 B(  3-C , 11-C ) :   1.1236
B(  4-C ,  5-C ) :   1.1236 B(  4-C , 14-C ) :   1.1236 B(  5-C , 16-C ) :   1.1236
B(  6-C ,  7-C ) :   1.1236 B(  6-C , 18-C ) :   1.5706 B(  7-C ,  8-C ) :   1.1236
B(  7-C , 19-C ) :   1.5706 B(  8-C ,  9-C ) :   1.5706 B(  9-C , 56-C ) :   1.1236
B(  9-C , 58-C ) :   1.1236 B( 10-C , 28-C ) :   1.1236 B( 10-C , 58-C ) :   1.5706
B( 11-C , 12-C ) :   1.5706 B( 11-C , 28-C ) :   1.1236 B( 12-C , 13-C ) :   1.1236
B( 12-C , 38-C ) :   1.1236 B( 13-C , 14-C ) :   1.5706 B( 13-C , 27-C ) :   1.1236
B( 14-C , 15-C ) :   1.1236 B( 15-C , 16-C ) :   1.1236 B( 15-C , 25-C ) :   1.5706
B( 16-C , 17-C ) :   1.5706 B( 17-C , 18-C ) :   1.1236 B( 17-C , 23-C ) :   1.1236
B( 18-C , 21-C ) :   1.1236 B( 19-C , 20-C ) :   1.1236 B( 19-C , 55-C ) :   1.1236
B( 20-C , 21-C ) :   1.5706 B( 20-C , 53-C ) :   1.1236 B( 21-C , 22-C ) :   1.1236
B( 22-C , 23-C ) :   1.1236 B( 22-C , 51-C ) :   1.5706 B( 23-C , 24-C ) :   1.5706
B( 24-C , 25-C ) :   1.1236 B( 24-C , 49-C ) :   1.1236 B( 25-C , 26-C ) :   1.1236
B( 26-C , 27-C ) :   1.5706 B( 26-C , 48-C ) :   1.1236 B( 27-C , 37-C ) :   1.1236
B( 28-C , 57-C ) :   1.5706 B( 29-C , 30-C ) :   1.5706 B( 29-C , 36-C ) :   1.1236
B( 29-C , 59-C ) :   1.1236 B( 30-C , 31-C ) :   1.1236 B( 30-C , 39-C ) :   1.1236
B( 31-C , 32-C ) :   1.5706 B( 31-C , 40-C ) :   1.1236 B( 32-C , 33-C ) :   1.1236
B( 32-C , 43-C ) :   1.1236 B( 33-C , 45-C ) :   1.1236 B( 33-C , 59-C ) :   1.5706
B( 34-C , 35-C ) :   1.1236 B( 34-C , 47-C ) :   1.5706 B( 34-C , 59-C ) :   1.1236
B( 35-C , 36-C ) :   1.1236 B( 35-C , 48-C ) :   1.5706 B( 36-C , 37-C ) :   1.5706
B( 37-C , 38-C ) :   1.1236 B( 38-C , 39-C ) :   1.5706 B( 39-C , 57-C ) :   1.1236
B( 40-C , 41-C ) :   1.5706 B( 40-C , 57-C ) :   1.1236 B( 41-C , 42-C ) :   1.1236
B( 41-C , 58-C ) :   1.1236 B( 42-C , 43-C ) :   1.5706 B( 42-C , 56-C ) :   1.1236
B( 43-C , 44-C ) :   1.1236 B( 44-C , 45-C ) :   1.1236 B( 44-C , 54-C ) :   1.5706
B( 45-C , 46-C ) :   1.5706 B( 46-C , 47-C ) :   1.1236 B( 46-C , 52-C ) :   1.1236
B( 47-C , 50-C ) :   1.1236 B( 48-C , 49-C ) :   1.1236 B( 49-C , 50-C ) :   1.5706
B( 50-C , 51-C ) :   1.1236 B( 51-C , 52-C ) :   1.1236 B( 52-C , 53-C ) :   1.5706
B( 53-C , 54-C ) :   1.1236 B( 54-C , 55-C ) :   1.1236 B( 55-C , 56-C ) :   1.5706

FINAL SINGLE POINT ENERGY     -2271.685994925436

DIPOLE MOMENT
-------------
                                X             Y             Z
Electronic contribution:      0.00001      -0.00000       0.00000
Nuclear contribution   :     -0.00000      -0.00000       0.00000
                        -----------------------------------------
Total Dipole Moment    :      0.00001      -0.00000       0.00000
                        -----------------------------------------
Magnitude (a.u.)       :      0.00001
Magnitude (Debye)      :      0.00003

Rotational constants in cm-1:     0.002631     0.002631     0.002631
Rotational constants in MHz :    78.889433    78.889360    78.889206

                             ****ORCA TERMINATED NORMALLY****
TOTAL RUN TIME: 0 days 0 hours 16 minutes 31 seconds 211 msec
