                         Program Version 5.0.0 -  RELEASE  -
|  1> ! UHF def2-TZVP Slowconv NoRI VeryTightSCF
|  2>
|  3> %pal
|  4>     nprocs          16
|  5> end
|  6>
|  7> %scf
|  8>     MaxIter         500
|  9> end
| 10>
| 11> *xyz +1 12
| 12>  C		41.75734		53.28449		36.46919
| 13>  N		42.79051		53.11573		35.57330
| 14>  H		43.17228		53.83016		34.93276
| 15>  C		43.13470		51.81354		35.56329
| 16>  H		43.91258		51.37948		34.93820
| 17>  N		42.38034		51.13480		36.42217
| 18>  C		41.51102		52.03696		36.99860
| 19>  H		40.83095		51.72793		37.79245
| 20>  C		40.09781		47.27650		33.80529
| 21>  N		40.02170		48.59447		33.39932
| 22>  H		39.44553		49.01241		32.66056
| 23>  C		40.82359		49.32561		34.20213
| 24>  H		40.95446		50.40104		34.10028
| 25>  N		41.40873		48.54956		35.10172
| 26>  C		40.96816		47.26932		34.87055
| 27>  H		41.28796		46.44831		35.50461
| 28>  C		38.24452		48.45120		37.81512
| 29>  H		38.05954		49.38046		37.26339
| 30>  H		37.98665		48.64263		38.86852
| 31>  C		39.72949		48.13040		37.79333
| 32>  O		40.09429		46.93627		38.07351
| 33>  O		40.51997		49.08118		37.60316
| 34>  C		38.64927		43.85206		40.73245
| 35>  N		39.75373		43.46182		41.46772
| 36>  H		39.79496		42.88382		42.31310
| 37>  C		40.85618		43.95072		40.86918
| 38>  H		41.86248		43.73518		41.21408
| 39>  N		40.53224		44.65285		39.79009
| 40>  C		39.15837		44.58557		39.68680
| 41>  H		38.64146		45.07274		38.87046
| 42>  C		42.78261		43.20374		35.50847
| 43>  N		41.70457		42.56369		36.07793
| 44>  H		41.38806		41.60804		35.87571
| 45>  C		41.22829		43.34611		37.06176
| 46>  H		40.41508		43.05921		37.72131
| 47>  N		41.93561		44.46974		37.14515
| 48>  C		42.91935		44.39163		36.18162
| 49>  H		43.65310		45.17946		36.03202
| 50>  C		45.76058		48.09668		34.01433
| 51>  H		45.12510		47.65198		33.22625
| 52>  H		46.65442		47.46412		34.10910
| 53>  C		44.94912		48.01873		35.29961
| 54>  O		44.13484		48.94943		35.55949
| 55>  O		45.08257		46.97820		36.01440
| 56>  Fe		42.54704		49.05340		36.88791
| 57>  Fe		41.81454		46.03362		38.62691
| 58>  O		42.83673		47.18336		37.38865
| 59>  H		43.73372		46.94370		37.02075
| 60>  C		43.49278		47.06016		40.65639
| 61>  C		43.63065		47.67500		42.05411
| 62>  C		45.10402		47.59104		42.50255
| 63>  C		45.62433		46.15327		42.46003
| 64>  C		45.40442		45.48020		41.08199
| 65>  C		43.93248		45.59938		40.69958
| 66>  O		42.19054		47.11944		40.15943
| 67>  O		42.78039		47.01168		42.97373
| 68>  O		45.28803		48.11581		43.80122
| 69>  O		46.99863		46.17840		42.81016
| 70>  O		45.74779		44.11749		41.08768
| 71>  O		43.60537		45.05344		39.42059
| 72>  H		44.16891		47.60985		39.96716
| 73>  H		43.37366		48.74650		41.98883
| 74>  H		45.70535		48.16646		41.76817
| 75>  H		45.03997		45.57270		43.19200
| 76>  H		46.02107		46.03839		40.34306
| 77>  H		43.34294		45.09136		41.47918
| 78>  H		42.11013		47.68750		43.28882
| 79>  H		45.23162		49.11556		43.72066
| 80>  H		47.38293		45.25457		42.73301
| 81>  H		46.61533		43.98339		41.55425
| 82>  H		43.52006		44.03995		39.45021
| 83>  O		42.85959		49.69549		38.87779
| 84>  O		44.06259		49.60890		38.41687
| 85>  H		41.30606		54.24869		36.70311
| 86>  H		39.55759		46.43186		33.37773
| 87>  H		37.59815		47.66320		37.42867
| 88>  H		37.60541		43.64578		40.96882
| 89>  H		43.42741		42.77068		34.74377
| 90>  H		46.04094		49.08905		33.66124
| 91> *
| 92>
| 93>                          ****END OF INPUT****

CARTESIAN COORDINATES (ANGSTROEM)
---------------------------------
  C     41.757340   53.284490   36.469190
  N     42.790510   53.115730   35.573300
  H     43.172280   53.830160   34.932760
  C     43.134700   51.813540   35.563290
  H     43.912580   51.379480   34.938200
  N     42.380340   51.134800   36.422170
  C     41.511020   52.036960   36.998600
  H     40.830950   51.727930   37.792450
  C     40.097810   47.276500   33.805290
  N     40.021700   48.594470   33.399320
  H     39.445530   49.012410   32.660560
  C     40.823590   49.325610   34.202130
  H     40.954460   50.401040   34.100280
  N     41.408730   48.549560   35.101720
  C     40.968160   47.269320   34.870550
  H     41.287960   46.448310   35.504610
  C     38.244520   48.451200   37.815120
  H     38.059540   49.380460   37.263390
  H     37.986650   48.642630   38.868520
  C     39.729490   48.130400   37.793330
  O     40.094290   46.936270   38.073510
  O     40.519970   49.081180   37.603160
  C     38.649270   43.852060   40.732450
  N     39.753730   43.461820   41.467720
  H     39.794960   42.883820   42.313100
  C     40.856180   43.950720   40.869180
  H     41.862480   43.735180   41.214080
  N     40.532240   44.652850   39.790090
  C     39.158370   44.585570   39.686800
  H     38.641460   45.072740   38.870460
  C     42.782610   43.203740   35.508470
  N     41.704570   42.563690   36.077930
  H     41.388060   41.608040   35.875710
  C     41.228290   43.346110   37.061760
  H     40.415080   43.059210   37.721310
  N     41.935610   44.469740   37.145150
  C     42.919350   44.391630   36.181620
  H     43.653100   45.179460   36.032020
  C     45.760580   48.096680   34.014330
  H     45.125100   47.651980   33.226250
  H     46.654420   47.464120   34.109100
  C     44.949120   48.018730   35.299610
  O     44.134840   48.949430   35.559490
  O     45.082570   46.978200   36.014400
  Fe    42.547040   49.053400   36.887910
  Fe    41.814540   46.033620   38.626910
  O     42.836730   47.183360   37.388650
  H     43.733720   46.943700   37.020750
  C     43.492780   47.060160   40.656390
  C     43.630650   47.675000   42.054110
  C     45.104020   47.591040   42.502550
  C     45.624330   46.153270   42.460030
  C     45.404420   45.480200   41.081990
  C     43.932480   45.599380   40.699580
  O     42.190540   47.119440   40.159430
  O     42.780390   47.011680   42.973730
  O     45.288030   48.115810   43.801220
  O     46.998630   46.178400   42.810160
  O     45.747790   44.117490   41.087680
  O     43.605370   45.053440   39.420590
  H     44.168910   47.609850   39.967160
  H     43.373660   48.746500   41.988830
  H     45.705350   48.166460   41.768170
  H     45.039970   45.572700   43.192000
  H     46.021070   46.038390   40.343060
  H     43.342940   45.091360   41.479180
  H     42.110130   47.687500   43.288820
  H     45.231620   49.115560   43.720660
  H     47.382930   45.254570   42.733010
  H     46.615330   43.983390   41.554250
  H     43.520060   44.039950   39.450210
  O     42.859590   49.695490   38.877790
  O     44.062590   49.608900   38.416870
  H     41.306060   54.248690   36.703110
  H     39.557590   46.431860   33.377730
  H     37.598150   47.663200   37.428670
  H     37.605410   43.645780   40.968820
  H     43.427410   42.770680   34.743770
  H     46.040940   49.089050   33.661240

 Total Charge           Charge          ....    1
 Multiplicity           Mult            ....   12
 Number of Electrons    NEL             ....  377
 Basis Dimension        Dim             .... 1627

ORBITAL ENERGIES
----------------
                 SPIN UP ORBITALS
  NO   OCC          E(Eh)            E(eV)
   0   1.0000    -261.610225     -7118.7761
   1   1.0000    -261.605616     -7118.6507
   2   1.0000     -32.276387      -878.2851
   3   1.0000     -32.270145      -878.1153
   4   1.0000     -27.753482      -755.2106
   5   1.0000     -27.752540      -755.1850
   6   1.0000     -27.751471      -755.1559
   7   1.0000     -27.746832      -755.0297
   8   1.0000     -27.746677      -755.0255
   9   1.0000     -27.746110      -755.0100
  10   1.0000     -20.692214      -563.0638
  11   1.0000     -20.644508      -561.7656
  12   1.0000     -20.639897      -561.6402
  13   1.0000     -20.636126      -561.5375
  14   1.0000     -20.620989      -561.1256
  15   1.0000     -20.620191      -561.1039
  16   1.0000     -20.612370      -560.8911
  17   1.0000     -20.606915      -560.7427
  18   1.0000     -20.602959      -560.6350
  19   1.0000     -20.589133      -560.2588
  20   1.0000     -20.585502      -560.1600
  21   1.0000     -20.562503      -559.5341
  22   1.0000     -20.539302      -558.9028
  23   1.0000     -15.749895      -428.5764
  24   1.0000     -15.746396      -428.4812
  25   1.0000     -15.734962      -428.1701
  26   1.0000     -15.728446      -427.9928
  27   1.0000     -15.693159      -427.0326
  28   1.0000     -15.688584      -426.9081
  29   1.0000     -15.671383      -426.4400
  30   1.0000     -15.669808      -426.3972
  31   1.0000     -11.456528      -311.7480
  32   1.0000     -11.432950      -311.1064
  33   1.0000     -11.430028      -311.0269
  34   1.0000     -11.416040      -310.6462
  35   1.0000     -11.414352      -310.6003
  36   1.0000     -11.408456      -310.4399
  37   1.0000     -11.379535      -309.6529
  38   1.0000     -11.374560      -309.5175
  39   1.0000     -11.367674      -309.3301
  40   1.0000     -11.363934      -309.2284
  41   1.0000     -11.358643      -309.0844
  42   1.0000     -11.358562      -309.0822
  43   1.0000     -11.354421      -308.9695
  44   1.0000     -11.350012      -308.8495
  45   1.0000     -11.348698      -308.8138
  46   1.0000     -11.346109      -308.7433
  47   1.0000     -11.337872      -308.5192
  48   1.0000     -11.329582      -308.2936
  49   1.0000     -11.324609      -308.1583
  50   1.0000     -11.315871      -307.9205
  51   1.0000     -11.309365      -307.7435
  52   1.0000     -11.283123      -307.0294
  53   1.0000      -4.634213      -126.1034
  54   1.0000      -4.626436      -125.8917
  55   1.0000      -3.249581       -88.4256
  56   1.0000      -3.247264       -88.3625
  57   1.0000      -3.245192       -88.3062
  58   1.0000      -3.242071       -88.2212
  59   1.0000      -3.239341       -88.1470
  60   1.0000      -3.237968       -88.1096
  61   1.0000      -1.564181       -42.5635
  62   1.0000      -1.502965       -40.8977
  63   1.0000      -1.487080       -40.4655
  64   1.0000      -1.473087       -40.0847
  65   1.0000      -1.468375       -39.9565
  66   1.0000      -1.463792       -39.8318
  67   1.0000      -1.455886       -39.6167
  68   1.0000      -1.449801       -39.4511
  69   1.0000      -1.444608       -39.3098
  70   1.0000      -1.419546       -38.6278
  71   1.0000      -1.405520       -38.2461
  72   1.0000      -1.401156       -38.1274
  73   1.0000      -1.387309       -37.7506
  74   1.0000      -1.369288       -37.2602
  75   1.0000      -1.348811       -36.7030
  76   1.0000      -1.341129       -36.4940
  77   1.0000      -1.302466       -35.4419
  78   1.0000      -1.297094       -35.2957
  79   1.0000      -1.285685       -34.9853
  80   1.0000      -1.278606       -34.7926
  81   1.0000      -1.143718       -31.1222
  82   1.0000      -1.133007       -30.8307
  83   1.0000      -1.131012       -30.7764
  84   1.0000      -1.130648       -30.7665
  85   1.0000      -1.117758       -30.4157
  86   1.0000      -1.109260       -30.1845
  87   1.0000      -1.077893       -29.3310
  88   1.0000      -1.045487       -28.4491
  89   1.0000      -1.041602       -28.3434
  90   1.0000      -1.024782       -27.8857
  91   1.0000      -0.993527       -27.0353
  92   1.0000      -0.987296       -26.8657
  93   1.0000      -0.981529       -26.7088
  94   1.0000      -0.976866       -26.5819
  95   1.0000      -0.967687       -26.3321
  96   1.0000      -0.963587       -26.2205
  97   1.0000      -0.962293       -26.1853
  98   1.0000      -0.956653       -26.0318
  99   1.0000      -0.956290       -26.0220
 100   1.0000      -0.952442       -25.9173
 101   1.0000      -0.950525       -25.8651
 102   1.0000      -0.944976       -25.7141
 103   1.0000      -0.936677       -25.4883
 104   1.0000      -0.927686       -25.2436
 105   1.0000      -0.923209       -25.1218
 106   1.0000      -0.918850       -25.0032
 107   1.0000      -0.907965       -24.7070
 108   1.0000      -0.905252       -24.6332
 109   1.0000      -0.900603       -24.5067
 110   1.0000      -0.885138       -24.0858
 111   1.0000      -0.879189       -23.9240
 112   1.0000      -0.870239       -23.6804
 113   1.0000      -0.868610       -23.6361
 114   1.0000      -0.857461       -23.3327
 115   1.0000      -0.845084       -22.9959
 116   1.0000      -0.836153       -22.7529
 117   1.0000      -0.807850       -21.9827
 118   1.0000      -0.802068       -21.8254
 119   1.0000      -0.782114       -21.2824
 120   1.0000      -0.775170       -21.0935
 121   1.0000      -0.762558       -20.7503
 122   1.0000      -0.752105       -20.4658
 123   1.0000      -0.749574       -20.3969
 124   1.0000      -0.746388       -20.3102
 125   1.0000      -0.739109       -20.1122
 126   1.0000      -0.738909       -20.1067
 127   1.0000      -0.735029       -20.0011
 128   1.0000      -0.731366       -19.9015
 129   1.0000      -0.728799       -19.8316
 130   1.0000      -0.727808       -19.8047
 131   1.0000      -0.722858       -19.6700
 132   1.0000      -0.720645       -19.6098
 133   1.0000      -0.719382       -19.5754
 134   1.0000      -0.715412       -19.4674
 135   1.0000      -0.713824       -19.4241
 136   1.0000      -0.711887       -19.3714
 137   1.0000      -0.710708       -19.3394
 138   1.0000      -0.709344       -19.3022
 139   1.0000      -0.701292       -19.0831
 140   1.0000      -0.700506       -19.0617
 141   1.0000      -0.698492       -19.0069
 142   1.0000      -0.698036       -18.9945
 143   1.0000      -0.697311       -18.9748
 144   1.0000      -0.694826       -18.9072
 145   1.0000      -0.689640       -18.7660
 146   1.0000      -0.685348       -18.6493
 147   1.0000      -0.680107       -18.5066
 148   1.0000      -0.676503       -18.4086
 149   1.0000      -0.674518       -18.3546
 150   1.0000      -0.666745       -18.1431
 151   1.0000      -0.658186       -17.9102
 152   1.0000      -0.651112       -17.7177
 153   1.0000      -0.645650       -17.5690
 154   1.0000      -0.641647       -17.4601
 155   1.0000      -0.634949       -17.2778
 156   1.0000      -0.632269       -17.2049
 157   1.0000      -0.626728       -17.0541
 158   1.0000      -0.623901       -16.9772
 159   1.0000      -0.619504       -16.8576
 160   1.0000      -0.614730       -16.7277
 161   1.0000      -0.611256       -16.6331
 162   1.0000      -0.604260       -16.4427
 163   1.0000      -0.601921       -16.3791
 164   1.0000      -0.585131       -15.9222
 165   1.0000      -0.583463       -15.8768
 166   1.0000      -0.576916       -15.6987
 167   1.0000      -0.567997       -15.4560
 168   1.0000      -0.558982       -15.2107
 169   1.0000      -0.555866       -15.1259
 170   1.0000      -0.551253       -15.0004
 171   1.0000      -0.545526       -14.8445
 172   1.0000      -0.542325       -14.7574
 173   1.0000      -0.541891       -14.7456
 174   1.0000      -0.535986       -14.5849
 175   1.0000      -0.533646       -14.5212
 176   1.0000      -0.528129       -14.3711
 177   1.0000      -0.519880       -14.1466
 178   1.0000      -0.519367       -14.1327
 179   1.0000      -0.515201       -14.0193
 180   1.0000      -0.508242       -13.8300
 181   1.0000      -0.505765       -13.7626
 182   1.0000      -0.496814       -13.5190
 183   1.0000      -0.492592       -13.4041
 184   1.0000      -0.485526       -13.2118
 185   1.0000      -0.484559       -13.1855
 186   1.0000      -0.479747       -13.0546
 187   1.0000      -0.456131       -12.4120
 188   1.0000      -0.446245       -12.1430
 189   1.0000      -0.445484       -12.1222
 190   1.0000      -0.441735       -12.0202
 191   1.0000      -0.437044       -11.8926
 192   1.0000      -0.427532       -11.6337
 193   1.0000      -0.419759       -11.4222
 194   0.0000       0.014003         0.3811
 195   0.0000       0.025548         0.6952
 196   0.0000       0.032153         0.8749
 197   0.0000       0.033809         0.9200
 198   0.0000       0.040611         1.1051

                 SPIN DOWN ORBITALS
  NO   OCC          E(Eh)            E(eV)
   0   1.0000    -261.606287     -7118.6690
   1   1.0000    -261.601787     -7118.5465
   2   1.0000     -32.110928      -873.7828
   3   1.0000     -32.104552      -873.6093
   4   1.0000     -27.589807      -750.7568
   5   1.0000     -27.589107      -750.7378
   6   1.0000     -27.588725      -750.7274
   7   1.0000     -27.583411      -750.5828
   8   1.0000     -27.583069      -750.5735
   9   1.0000     -27.582967      -750.5707
  10   1.0000     -20.689882      -563.0003
  11   1.0000     -20.639898      -561.6402
  12   1.0000     -20.620185      -561.1038
  13   1.0000     -20.617687      -561.0358
  14   1.0000     -20.611042      -560.8550
  15   1.0000     -20.609769      -560.8203
  16   1.0000     -20.606926      -560.7430
  17   1.0000     -20.605808      -560.7125
  18   1.0000     -20.602942      -560.6346
  19   1.0000     -20.585882      -560.1703
  20   1.0000     -20.577466      -559.9413
  21   1.0000     -20.562449      -559.5327
  22   1.0000     -20.531985      -558.7037
  23   1.0000     -15.749839      -428.5749
  24   1.0000     -15.746299      -428.4786
  25   1.0000     -15.734867      -428.1675
  26   1.0000     -15.728405      -427.9917
  27   1.0000     -15.690937      -426.9721
  28   1.0000     -15.686186      -426.8428
  29   1.0000     -15.668334      -426.3570
  30   1.0000     -15.667513      -426.3347
  31   1.0000     -11.456554      -311.7487
  32   1.0000     -11.433040      -311.1088
  33   1.0000     -11.430256      -311.0331
  34   1.0000     -11.416085      -310.6475
  35   1.0000     -11.414811      -310.6128
  36   1.0000     -11.408727      -310.4472
  37   1.0000     -11.379316      -309.6469
  38   1.0000     -11.374372      -309.5124
  39   1.0000     -11.367210      -309.3175
  40   1.0000     -11.364146      -309.2341
  41   1.0000     -11.358734      -309.0869
  42   1.0000     -11.358209      -309.0726
  43   1.0000     -11.354450      -308.9703
  44   1.0000     -11.350516      -308.8632
  45   1.0000     -11.348687      -308.8135
  46   1.0000     -11.346482      -308.7535
  47   1.0000     -11.337870      -308.5191
  48   1.0000     -11.329559      -308.2930
  49   1.0000     -11.324488      -308.1550
  50   1.0000     -11.316010      -307.9243
  51   1.0000     -11.309188      -307.7386
  52   1.0000     -11.283008      -307.0262
  53   1.0000      -4.186212      -113.9126
  54   1.0000      -4.178102      -113.6919
  55   1.0000      -2.709181       -73.7206
  56   1.0000      -2.707044       -73.6624
  57   1.0000      -2.705869       -73.6304
  58   1.0000      -2.700981       -73.4974
  59   1.0000      -2.699235       -73.4499
  60   1.0000      -2.697902       -73.4137
  61   1.0000      -1.497049       -40.7368
  62   1.0000      -1.482333       -40.3363
  63   1.0000      -1.482010       -40.3276
  64   1.0000      -1.471860       -40.0513
  65   1.0000      -1.467210       -39.9248
  66   1.0000      -1.459179       -39.7063
  67   1.0000      -1.454444       -39.5774
  68   1.0000      -1.448592       -39.4182
  69   1.0000      -1.444194       -39.2985
  70   1.0000      -1.419408       -38.6241
  71   1.0000      -1.405293       -38.2400
  72   1.0000      -1.392897       -37.9027
  73   1.0000      -1.387114       -37.7453
  74   1.0000      -1.351627       -36.7796
  75   1.0000      -1.337964       -36.4079
  76   1.0000      -1.322033       -35.9743
  77   1.0000      -1.299418       -35.3590
  78   1.0000      -1.293946       -35.2101
  79   1.0000      -1.281959       -34.8839
  80   1.0000      -1.275324       -34.7033
  81   1.0000      -1.141755       -31.0687
  82   1.0000      -1.130627       -30.7659
  83   1.0000      -1.130178       -30.7537
  84   1.0000      -1.117413       -30.4063
  85   1.0000      -1.108812       -30.1723
  86   1.0000      -1.074599       -29.2413
  87   1.0000      -1.043315       -28.3901
  88   1.0000      -1.040498       -28.3134
  89   1.0000      -1.017853       -27.6972
  90   1.0000      -1.010124       -27.4869
  91   1.0000      -0.955526       -26.0012
  92   1.0000      -0.952863       -25.9287
  93   1.0000      -0.940913       -25.6035
  94   1.0000      -0.931877       -25.3577
  95   1.0000      -0.924020       -25.1439
  96   1.0000      -0.920950       -25.0603
  97   1.0000      -0.908776       -24.7291
  98   1.0000      -0.905978       -24.6529
  99   1.0000      -0.902776       -24.5658
 100   1.0000      -0.884485       -24.0681
 101   1.0000      -0.879122       -23.9221
 102   1.0000      -0.872030       -23.7291
 103   1.0000      -0.868510       -23.6333
 104   1.0000      -0.858002       -23.3474
 105   1.0000      -0.850981       -23.1564
 106   1.0000      -0.837208       -22.7816
 107   1.0000      -0.811265       -22.0756
 108   1.0000      -0.801316       -21.8049
 109   1.0000      -0.780745       -21.2452
 110   1.0000      -0.771718       -20.9995
 111   1.0000      -0.761760       -20.7285
 112   1.0000      -0.749556       -20.3965
 113   1.0000      -0.748644       -20.3716
 114   1.0000      -0.742446       -20.2030
 115   1.0000      -0.737949       -20.0806
 116   1.0000      -0.734384       -19.9836
 117   1.0000      -0.730780       -19.8855
 118   1.0000      -0.728848       -19.8330
 119   1.0000      -0.726169       -19.7601
 120   1.0000      -0.724410       -19.7122
 121   1.0000      -0.720558       -19.6074
 122   1.0000      -0.719455       -19.5774
 123   1.0000      -0.716231       -19.4896
 124   1.0000      -0.714096       -19.4315
 125   1.0000      -0.713241       -19.4083
 126   1.0000      -0.710742       -19.3403
 127   1.0000      -0.705157       -19.1883
 128   1.0000      -0.700887       -19.0721
 129   1.0000      -0.698162       -18.9980
 130   1.0000      -0.697711       -18.9857
 131   1.0000      -0.696834       -18.9618
 132   1.0000      -0.692643       -18.8478
 133   1.0000      -0.690384       -18.7863
 134   1.0000      -0.685383       -18.6502
 135   1.0000      -0.681879       -18.5549
 136   1.0000      -0.676049       -18.3962
 137   1.0000      -0.674504       -18.3542
 138   1.0000      -0.670066       -18.2334
 139   1.0000      -0.665464       -18.1082
 140   1.0000      -0.657500       -17.8915
 141   1.0000      -0.646083       -17.5808
 142   1.0000      -0.641217       -17.4484
 143   1.0000      -0.637674       -17.3520
 144   1.0000      -0.630653       -17.1609
 145   1.0000      -0.624944       -17.0056
 146   1.0000      -0.624054       -16.9814
 147   1.0000      -0.618818       -16.8389
 148   1.0000      -0.616128       -16.7657
 149   1.0000      -0.611669       -16.6444
 150   1.0000      -0.608820       -16.5668
 151   1.0000      -0.606708       -16.5094
 152   1.0000      -0.603152       -16.4126
 153   1.0000      -0.597584       -16.2611
 154   1.0000      -0.593961       -16.1625
 155   1.0000      -0.584668       -15.9096
 156   1.0000      -0.579043       -15.7566
 157   1.0000      -0.569003       -15.4834
 158   1.0000      -0.555493       -15.1157
 159   1.0000      -0.554488       -15.0884
 160   1.0000      -0.544008       -14.8032
 161   1.0000      -0.543003       -14.7759
 162   1.0000      -0.540162       -14.6985
 163   1.0000      -0.533588       -14.5197
 164   1.0000      -0.530473       -14.4349
 165   1.0000      -0.527491       -14.3538
 166   1.0000      -0.519811       -14.1448
 167   1.0000      -0.519384       -14.1332
 168   1.0000      -0.512058       -13.9338
 169   1.0000      -0.509100       -13.8533
 170   1.0000      -0.506694       -13.7879
 171   1.0000      -0.491569       -13.3763
 172   1.0000      -0.484460       -13.1828
 173   1.0000      -0.483464       -13.1557
 174   1.0000      -0.480409       -13.0726
 175   1.0000      -0.471887       -12.8407
 176   1.0000      -0.451627       -12.2894
 177   1.0000      -0.444817       -12.1041
 178   1.0000      -0.439614       -11.9625
 179   1.0000      -0.433311       -11.7910
 180   1.0000      -0.427639       -11.6366
 181   1.0000      -0.419985       -11.4284
 182   1.0000      -0.393790       -10.7156
 183   0.0000       0.013355         0.3634
 184   0.0000       0.023381         0.6362
 185   0.0000       0.031820         0.8659
 186   0.0000       0.032727         0.8906
 187   0.0000       0.035120         0.9557

MULLIKEN ATOMIC CHARGES AND SPIN POPULATIONS
--------------------------------------------
   0 C :   -0.045858    0.021708
   1 N :   -0.325993    0.000225
   2 H :    0.292371    0.000479
   3 C :    0.173069   -0.013335
   4 H :    0.210915    0.000898
   5 N :   -0.264148    0.041544
   6 C :   -0.053664   -0.018578
   7 H :    0.188915    0.000955
   8 C :   -0.099257    0.021273
   9 N :   -0.321261    0.001648
  10 H :    0.287959    0.000399
  11 C :    0.171184   -0.021126
  12 H :    0.189867    0.002174
  13 N :   -0.259805    0.038723
  14 C :   -0.001431   -0.022666
  15 H :    0.175081    0.002131
  16 C :   -0.362892    0.005246
  17 H :    0.133732    0.000079
  18 H :    0.147613   -0.000610
  19 C :    0.720447    0.000973
  20 O :   -0.717775    0.029376
  21 O :   -0.616680    0.026762
  22 C :   -0.052998    0.009337
  23 N :   -0.330782    0.002028
  24 H :    0.295196    0.000281
  25 C :    0.224376   -0.009934
  26 H :    0.176110    0.000904
  27 N :   -0.354377    0.026659
  28 C :   -0.056447   -0.009638
  29 H :    0.185702    0.000651
  30 C :   -0.052481    0.008233
  31 N :   -0.331088    0.000801
  32 H :    0.293253    0.000425
  33 C :    0.186905   -0.004108
  34 H :    0.205657    0.000578
  35 N :   -0.349965    0.023846
  36 C :   -0.067153   -0.008018
  37 H :    0.228469    0.000447
  38 C :   -0.331824    0.003469
  39 H :    0.107746   -0.000232
  40 H :    0.144641    0.000102
  41 C :    0.640396   -0.001439
  42 O :   -0.665123    0.034928
  43 O :   -0.686408    0.001054
  44 Fe:    1.339303    4.698924
  45 Fe:    1.319877    4.751767
  46 O :   -1.113650    0.093540
  47 H :    0.423763    0.000612
  48 C :    0.275396   -0.003293
  49 C :    0.110328    0.003081
  50 C :    0.157600    0.000580
  51 C :    0.103422    0.000093
  52 C :    0.094635   -0.000021
  53 C :    0.116573   -0.001547
  54 O :   -0.760688    0.103996
  55 O :   -0.576859   -0.000246
  56 O :   -0.522003    0.000268
  57 O :   -0.487851    0.000095
  58 O :   -0.547086    0.000069
  59 O :   -0.571681    0.018656
  60 H :    0.107684    0.001749
  61 H :    0.104120   -0.000646
  62 H :    0.086520   -0.000330
  63 H :    0.074629    0.000001
  64 H :    0.093386   -0.000046
  65 H :    0.065026    0.000250
  66 H :    0.346251   -0.000025
  67 H :    0.333980   -0.000020
  68 H :    0.300247   -0.000012
  69 H :    0.320911   -0.000088
  70 H :    0.378171   -0.000579
  71 O :   -0.307571    0.515997
  72 O :   -0.282121    0.621683
  73 H :    0.184336   -0.001116
  74 H :    0.176408   -0.001360
  75 H :    0.122673    0.000390
  76 H :    0.191479   -0.000479
  77 H :    0.193748   -0.000362
  78 H :    0.116852   -0.000236
Sum of atomic charges         :    1.0000000

LOEWDIN ATOMIC CHARGES AND SPIN POPULATIONS
-------------------------------------------
   0 C :   -0.208368    0.011351
   1 N :    0.169726    0.000629
   2 H :    0.214977    0.000195
   3 C :   -0.193715   -0.006876
   4 H :    0.151527    0.000134
   5 N :    0.093510    0.031566
   6 C :   -0.192630   -0.008041
   7 H :    0.150241    0.000352
   8 C :   -0.211145    0.012231
   9 N :    0.169440    0.001117
  10 H :    0.210564    0.000227
  11 C :   -0.202281   -0.012097
  12 H :    0.143123    0.000253
  13 N :    0.104362    0.042331
  14 C :   -0.201417   -0.010213
  15 H :    0.146964    0.000051
  16 C :   -0.229823    0.002754
  17 H :    0.126127    0.000124
  18 H :    0.140867   -0.000255
  19 C :   -0.434089    0.002423
  20 O :   -0.031670    0.040793
  21 O :    0.023819    0.031371
  22 C :   -0.197370    0.005555
  23 N :    0.178128    0.001299
  24 H :    0.214461    0.000167
  25 C :   -0.197299   -0.005308
  26 H :    0.140805    0.000136
  27 N :    0.086262    0.032252
  28 C :   -0.213310   -0.003809
  29 H :    0.143485    0.000118
  30 C :   -0.201657    0.004776
  31 N :    0.176994    0.000881
  32 H :    0.214368    0.000211
  33 C :   -0.209249   -0.001668
  34 H :    0.145374    0.000015
  35 N :    0.075793    0.030470
  36 C :   -0.196569   -0.002908
  37 H :    0.154645    0.000097
  38 C :   -0.242956    0.001723
  39 H :    0.129032   -0.000078
  40 H :    0.128919    0.000116
  41 C :   -0.484579    0.000297
  42 O :   -0.035521    0.039877
  43 O :   -0.118234    0.000489
  44 Fe:    0.655464    4.655045
  45 Fe:    0.701334    4.693491
  46 O :   -0.368582    0.113129
  47 H :    0.173230    0.002565
  48 C :   -0.326369    0.001032
  49 C :   -0.278671    0.001945
  50 C :   -0.286631    0.000342
  51 C :   -0.277586    0.000028
  52 C :   -0.290390    0.000247
  53 C :   -0.258299   -0.000570
  54 O :   -0.191121    0.106458
  55 O :   -0.058186   -0.000105
  56 O :   -0.042567    0.000241
  57 O :   -0.040314    0.000084
  58 O :   -0.052694    0.000035
  59 O :    0.036391    0.027799
  60 H :    0.149898   -0.000506
  61 H :    0.139514   -0.000187
  62 H :    0.143068   -0.000071
  63 H :    0.139532   -0.000003
  64 H :    0.143540   -0.000031
  65 H :    0.138525   -0.000132
  66 H :    0.208380   -0.000002
  67 H :    0.204433   -0.000007
  68 H :    0.184483   -0.000005
  69 H :    0.189194   -0.000044
  70 H :    0.229236    0.000111
  71 O :   -0.210726    0.532968
  72 O :   -0.192052    0.620986
  73 H :    0.142261   -0.000101
  74 H :    0.140694   -0.000119
  75 H :    0.118104    0.000262
  76 H :    0.145798    0.000012
  77 H :    0.146398    0.000031
  78 H :    0.113080   -0.000058

  Mayer bond orders larger than 0.100000
B(  0-C ,  1-N ) :   1.1175 B(  0-C ,  6-C ) :   1.7262 B(  0-C , 73-H ) :   0.9478
B(  1-N ,  2-H ) :   0.8943 B(  1-N ,  3-C ) :   1.3096 B(  3-C ,  4-H ) :   0.9507
B(  3-C ,  5-N ) :   1.4887 B(  5-N ,  6-C ) :   1.1839 B(  5-N , 44-Fe) :   0.5801
B(  6-C ,  7-H ) :   0.9626 B(  8-C ,  9-N ) :   1.1478 B(  8-C , 14-C ) :   1.7193
B(  8-C , 74-H ) :   0.9518 B(  9-N , 10-H ) :   0.8964 B(  9-N , 11-C ) :   1.3057
B( 11-C , 12-H ) :   0.9584 B( 11-C , 13-N ) :   1.5443 B( 13-N , 14-C ) :   1.1994
B( 13-N , 44-Fe) :   0.4110 B( 14-C , 15-H ) :   0.9664 B( 16-C , 17-H ) :   0.9936
B( 16-C , 18-H ) :   0.9627 B( 16-C , 19-C ) :   0.9664 B( 16-C , 75-H ) :   0.9834
B( 19-C , 20-O ) :   1.3304 B( 19-C , 21-O ) :   1.5125 B( 20-O , 45-Fe) :   0.4190
B( 21-O , 44-Fe) :   0.3027 B( 22-C , 23-N ) :   1.1277 B( 22-C , 28-C ) :   1.7374
B( 22-C , 76-H ) :   0.9468 B( 23-N , 24-H ) :   0.8930 B( 23-N , 25-C ) :   1.3323
B( 25-C , 26-H ) :   0.9546 B( 25-C , 27-N ) :   1.4903 B( 27-N , 28-C ) :   1.1938
B( 27-N , 45-Fe) :   0.4164 B( 28-C , 29-H ) :   0.9647 B( 30-C , 31-N ) :   1.1326
B( 30-C , 36-C ) :   1.7446 B( 30-C , 77-H ) :   0.9424 B( 31-N , 32-H ) :   0.8933
B( 31-N , 33-C ) :   1.3305 B( 33-C , 34-H ) :   0.9531 B( 33-C , 35-N ) :   1.4887
B( 35-N , 36-C ) :   1.1764 B( 35-N , 45-Fe) :   0.4773 B( 36-C , 37-H ) :   0.9264
B( 38-C , 39-H ) :   0.9563 B( 38-C , 40-H ) :   0.9939 B( 38-C , 41-C ) :   0.9841
B( 38-C , 78-H ) :   0.9849 B( 41-C , 42-O ) :   1.3721 B( 41-C , 43-O ) :   1.5756
B( 42-O , 44-Fe) :   0.4131 B( 43-O , 47-H ) :   0.1270 B( 44-Fe, 46-O ) :   0.2643
B( 44-Fe, 71-O ) :   0.4505 B( 44-Fe, 72-O ) :   0.3120 B( 45-Fe, 46-O ) :   0.3667
B( 45-Fe, 54-O ) :   0.7495 B( 45-Fe, 59-O ) :   0.2320 B( 46-O , 47-H ) :   0.7426
B( 48-C , 49-C ) :   0.9342 B( 48-C , 53-C ) :   0.9945 B( 48-C , 54-O ) :   0.8403
B( 48-C , 60-H ) :   0.9934 B( 49-C , 50-C ) :   0.9729 B( 49-C , 55-O ) :   1.0764
B( 49-C , 61-H ) :   0.9718 B( 50-C , 51-C ) :   0.9757 B( 50-C , 56-O ) :   0.9884
B( 50-C , 62-H ) :   0.9975 B( 51-C , 52-C ) :   1.0146 B( 51-C , 57-O ) :   0.9785
B( 51-C , 63-H ) :   0.9851 B( 52-C , 53-C ) :   1.0004 B( 52-C , 58-O ) :   0.9531
B( 52-C , 64-H ) :   0.9916 B( 53-C , 59-O ) :   0.7057 B( 53-C , 65-H ) :   0.9866
B( 55-O , 66-H ) :   0.8794 B( 56-O , 67-H ) :   0.8802 B( 57-O , 68-H ) :   0.8923
B( 58-O , 69-H ) :   0.8809 B( 59-O , 70-H ) :   0.8412 B( 71-O , 72-O ) :   1.1684

FINAL SINGLE POINT ENERGY     -4787.438560237624

DIPOLE MOMENT
-------------
                                X             Y             Z
Electronic contribution:     -7.79841       6.09680      -7.60336
Nuclear contribution   :      2.82395      -8.54805       3.28465
                        -----------------------------------------
Total Dipole Moment    :     -4.97447      -2.45125      -4.31870
                        -----------------------------------------
Magnitude (a.u.)       :      7.02888
Magnitude (Debye)      :     17.86599

Rotational constants in cm-1:     0.002821     0.001898     0.001592
Rotational constants in MHz :    84.561491    56.909288    47.739255

                             ****ORCA TERMINATED NORMALLY****
TOTAL RUN TIME: 0 days 5 hours 52 minutes 38 seconds 369 msec
