                         Program Version 5.0.0 -  RELEASE  -
|  1> ! def2-SVP pal8
|  2> ! moread
|  3>
|  4> %moinp "C7H14-ROHF.gbw"
|  5>
|  6> %casscf
|  7> 	mult 	3
|  8> 	nel 	2
|  9> 	norb 	2
| 10>     ActOrbs LocOrbs
| 11> end
| 12>
| 13> *xyz 0 3
| 14>   C     -3.693788    1.345950   -0.080153
| 15>   C     -2.193484    1.373788   -0.056812
| 16>   H     -4.225508    1.180088   -1.010334
| 17>   H     -4.255204    1.224048    0.839301
| 18>   C     -1.554416   -0.023401   -0.016100
| 19>   H     -1.824927    1.905707   -0.939850
| 20>   H     -1.852812    1.944021    0.813355
| 21>   C     -0.027056    0.014500    0.007320
| 22>   H     -1.919913   -0.559214    0.866609
| 23>   H     -1.893486   -0.598246   -0.884715
| 24>   H      0.334747    0.551752   -0.877315
| 25>   H      0.305045    0.594496    0.874340
| 26>   C      0.609304   -1.374514    0.044919
| 27>   H      0.262703   -1.951369   -0.819054
| 28>   H      0.259278   -1.912060    0.933203
| 29>   C      2.147820   -1.364759    0.037560
| 30>   H      2.493149   -2.399801   -0.057561
| 31>   H      2.498336   -0.839762   -0.856087
| 32>   C      2.771544   -0.752033    1.258758
| 33>   H      3.140055    0.266294    1.257206
| 34>   H      2.687753   -1.251260    2.218099
| 35> *
| 36>
| 37>
| 38>                          ****END OF INPUT****

CARTESIAN COORDINATES (ANGSTROEM)
---------------------------------
  C     -3.693788    1.345950   -0.080153
  C     -2.193484    1.373788   -0.056812
  H     -4.225508    1.180088   -1.010334
  H     -4.255204    1.224048    0.839301
  C     -1.554416   -0.023401   -0.016100
  H     -1.824927    1.905707   -0.939850
  H     -1.852812    1.944021    0.813355
  C     -0.027056    0.014500    0.007320
  H     -1.919913   -0.559214    0.866609
  H     -1.893486   -0.598246   -0.884715
  H      0.334747    0.551752   -0.877315
  H      0.305045    0.594496    0.874340
  C      0.609304   -1.374514    0.044919
  H      0.262703   -1.951369   -0.819054
  H      0.259278   -1.912060    0.933203
  C      2.147820   -1.364759    0.037560
  H      2.493149   -2.399801   -0.057561
  H      2.498336   -0.839762   -0.856087
  C      2.771544   -0.752033    1.258758
  H      3.140055    0.266294    1.257206
  H      2.687753   -1.251260    2.218099

 Total Charge           Charge          ....    0
 Multiplicity           Mult            ....    3
 Number of Electrons    NEL             ....   56
 Basis Dimension        Dim             ....  168

ORBITAL ENERGIES
----------------

  NO   OCC          E(Eh)            E(eV)
   0   2.0000     -11.225566      -305.4632
   1   2.0000     -11.224481      -305.4337
   2   2.0000     -11.220898      -305.3362
   3   2.0000     -11.220786      -305.3331
   4   2.0000     -11.220618      -305.3285
   5   2.0000     -11.220003      -305.3118
   6   2.0000     -11.217698      -305.2491
   7   2.0000      -1.080434       -29.4001
   8   2.0000      -1.036719       -28.2106
   9   2.0000      -0.966275       -26.2937
  10   2.0000      -0.883689       -24.0464
  11   2.0000      -0.817401       -22.2426
  12   2.0000      -0.777187       -21.1483
  13   2.0000      -0.763147       -20.7663
  14   2.0000      -0.653693       -17.7879
  15   2.0000      -0.625192       -17.0123
  16   2.0000      -0.605202       -16.4684
  17   2.0000      -0.577599       -15.7173
  18   2.0000      -0.561374       -15.2758
  19   2.0000      -0.553245       -15.0546
  20   2.0000      -0.530884       -14.4461
  21   2.0000      -0.508955       -13.8494
  22   2.0000      -0.492506       -13.4018
  23   2.0000      -0.473399       -12.8818
  24   2.0000      -0.463652       -12.6166
  25   2.0000      -0.461309       -12.5529
  26   2.0000      -0.458415       -12.4741
  27   1.0000      -0.091266        -2.4835
  28   1.0000      -0.091311        -2.4847
  29   0.0000       0.179132         4.8744
  30   0.0000       0.194462         5.2916
  31   0.0000       0.205438         5.5903
  32   0.0000       0.208615         5.6767
  33   0.0000       0.229577         6.2471

MULLIKEN ATOMIC CHARGES AND SPIN DENSITIES
------------------------------------------
   0 C :   -0.107498    0.963526
   1 C :   -0.045614    0.001079
   2 H :    0.055516    0.005518
   3 H :    0.055610    0.005519
   4 C :   -0.063089    0.008725
   5 H :    0.031050    0.003683
   6 H :    0.031297    0.003658
   7 C :   -0.060221    0.005185
   8 H :    0.022406    0.002033
   9 H :    0.021914    0.002085
  10 H :    0.018349    0.000398
  11 H :    0.025492    0.002520
  12 C :   -0.052867    0.009203
  13 H :    0.024055    0.002766
  14 H :    0.021745    0.001261
  15 C :   -0.031217    0.001048
  16 H :    0.037831    0.008516
  17 H :    0.029895    0.000942
  18 C :   -0.129122    0.961405
  19 H :    0.060134    0.005612
  20 H :    0.054336    0.005318
Sum of atomic charges       :   -0.0000000

LOEWDIN ATOMIC CHARGES AND SPIN DENSITIES
-----------------------------------------
   0 C :   -0.006850    0.893037
   1 C :   -0.039302    0.020723
   2 H :    0.006519    0.021073
   3 H :    0.006563    0.021076
   4 C :   -0.019430    0.026347
   5 H :    0.016206    0.005354
   6 H :    0.016279    0.005303
   7 C :   -0.023173    0.005045
   8 H :    0.010206    0.001609
   9 H :    0.009775    0.001779
  10 H :    0.009707    0.000256
  11 H :    0.010126    0.002886
  12 C :   -0.018496    0.024134
  13 H :    0.011090    0.002220
  14 H :    0.009911    0.001323
  15 C :   -0.038363    0.020524
  16 H :    0.019243    0.011958
  17 H :    0.015897    0.001503
  18 C :   -0.009334    0.891705
  19 H :    0.007203    0.021432
  20 H :    0.006222    0.020713

  Mayer bond orders larger than 0.100000
B(  0-C ,  1-C ) :   1.0333 B(  0-C ,  2-H ) :   0.9891 B(  0-C ,  3-H ) :   0.9891
B(  1-C ,  4-C ) :   1.0217 B(  1-C ,  5-H ) :   0.9741 B(  1-C ,  6-H ) :   0.9740
B(  4-C ,  7-C ) :   1.0303 B(  4-C ,  8-H ) :   0.9715 B(  4-C ,  9-H ) :   0.9719
B(  7-C , 10-H ) :   0.9706 B(  7-C , 11-H ) :   0.9702 B(  7-C , 12-C ) :   1.0160
B( 12-C , 13-H ) :   0.9737 B( 12-C , 14-H ) :   0.9714 B( 12-C , 15-C ) :   1.0429
B( 15-C , 16-H ) :   0.9779 B( 15-C , 17-H ) :   0.9746 B( 15-C , 18-C ) :   1.0155
B( 18-C , 19-H ) :   0.9900 B( 18-C , 20-H ) :   0.9887

FINAL SINGLE POINT ENERGY      -272.936270418919

DIPOLE MOMENT
-------------
                                X             Y             Z
Electronic contribution:      0.08351       0.14071       0.00132
Nuclear contribution   :     -0.08888      -0.22844      -0.02714
                        -----------------------------------------
Total Dipole Moment    :     -0.00536      -0.08773      -0.02583
                        -----------------------------------------
Magnitude (a.u.)       :      0.09161
Magnitude (Debye)      :      0.23286

Rotational constants in cm-1:     0.281333     0.028707     0.027530
Rotational constants in MHz :  8434.155340   860.619249   825.340837

                             ****ORCA TERMINATED NORMALLY****
TOTAL RUN TIME: 0 days 0 hours 0 minutes 8 seconds 677 msec
