 Gaussian 16, Revision A.03,
 Gaussian 16:  ES64L-G16RevA.03 25-Dec-2016

 --------------
 #p RHF/cc-pVTZ
 --------------

 ---------------------------------
 3,8-dicl-dibenzene SP RHF cc-pVTZ
 ---------------------------------
 Symbolic Z-matrix:
 Charge =  0 Multiplicity = 1

                         Standard orientation:
 ---------------------------------------------------------------------
 Center     Atomic      Atomic             Coordinates (Angstroms)
 Number     Number       Type             X           Y           Z
 ---------------------------------------------------------------------
      1          6           0        2.730812   -0.022491    1.452760
      2          6           0        1.349615   -0.011465    1.322312
      3          6           0        0.746550   -0.005826    0.066646
      4          6           0        1.562496   -0.011510   -1.062343
      5          6           0        2.944960   -0.022535   -0.946075
      6          6           0        3.520366   -0.028168    0.314268
      7          1           0        3.191814   -0.026765    2.429874
      8          1           0        0.733622   -0.007147    2.211768
      9          1           0        1.113794   -0.007226   -2.046846
     10          1           0        3.571749   -0.026843   -1.826081
     11          6           0       -0.746572    0.005775   -0.066648
     12          6           0       -1.446629    1.208552   -0.129164
     13          6           0       -1.465504   -1.185565   -0.130806
     14          6           0       -2.828364    1.226701   -0.252514
     15          1           0       -0.906707    2.144903   -0.080981
     16          6           0       -2.847410   -1.181634   -0.254171
     17          1           0       -0.940500   -2.130432   -0.083921
     18          6           0       -3.520327    0.027935   -0.314265
     19          1           0       -3.365065    2.163155   -0.300443
     20          1           0       -3.398825   -2.109435   -0.303380
     21         17           0        5.254105   -0.041683    0.469042
     22         17           0       -5.254096    0.041753   -0.469041
 ---------------------------------------------------------------------

 SCF Done:  E(RHF) =  -1378.26824593     A.U. after   15 cycles

 The electronic state is 1-A.
 Alpha  occ. eigenvalues -- -104.84172-104.84172 -11.30646 -11.30645 -11.25991
 Alpha  occ. eigenvalues --  -11.25923 -11.25323 -11.25323 -11.25318 -11.25317
 Alpha  occ. eigenvalues --  -11.25147 -11.25147 -11.25140 -11.25139 -10.56677
 Alpha  occ. eigenvalues --  -10.56676  -8.03366  -8.03365  -8.03176  -8.03176
 Alpha  occ. eigenvalues --   -8.03174  -8.03173  -1.20447  -1.19365  -1.14343
 Alpha  occ. eigenvalues --   -1.11394  -1.03830  -1.03829  -1.03517  -0.97288
 Alpha  occ. eigenvalues --   -0.85458  -0.85457  -0.84525  -0.80128  -0.72885
 Alpha  occ. eigenvalues --   -0.67458  -0.66138  -0.66138  -0.65248  -0.63911
 Alpha  occ. eigenvalues --   -0.60737  -0.60736  -0.58743  -0.55062  -0.55062
 Alpha  occ. eigenvalues --   -0.54075  -0.52231  -0.52231  -0.50004  -0.47161
 Alpha  occ. eigenvalues --   -0.47161  -0.45759  -0.45759  -0.36217  -0.35414
 Alpha  occ. eigenvalues --   -0.33981  -0.33981
 Alpha virt. eigenvalues --    0.09236   0.11215   0.11215   0.12674   0.13655
 Alpha virt. eigenvalues --    0.14412   0.16462   0.16463   0.17550   0.18848
 Alpha virt. eigenvalues --    0.20936   0.20936   0.20946   0.21048   0.28330

 Mulliken charges:
               1
     1  C   -0.170376
     2  C   -0.126696
     3  C   -0.028038
     4  C   -0.126696
     5  C   -0.170376
     6  C    0.109199
     7  H    0.172159
     8  H    0.163035
     9  H    0.163035
    10  H    0.172159
    11  C   -0.028008
    12  C   -0.126707
    13  C   -0.126702
    14  C   -0.170383
    15  H    0.163039
    16  C   -0.170382
    17  H    0.163038
    18  C    0.109218
    19  H    0.172165
    20  H    0.172159
    21  Cl  -0.157409
    22  Cl  -0.157430
 Sum of Mulliken charges =  -0.00000

 Dipole moment (field-independent basis, Debye):
    X=              0.0002    Y=              0.0000    Z=              0.0000  Tot=              0.0002
 Quadrupole moment (field-independent basis, Debye-Ang):
   XX=           -114.0223   YY=            -91.8788   ZZ=            -92.0533
   XY=              0.1764   XZ=             -1.9770   YZ=              0.0157

 Normal termination of Gaussian 16 at Wed May  4 14:50:51 2022.
