                         Program Version 5.0.0 -  RELEASE  -
|  1> ! HF 3-21G pal8
|  2>
|  3> %scf
|  4>  HFTyp UHF
|  5>  STABPerform true
|  6>  STABRestartUHFifUnstable true
|  7> end
|  8>
|  9> *xyz 0 1
| 10>  C                  0.17823418   -0.42164323    0.09565119
| 11>  C                  1.71823511   -0.42159910    0.09557290
| 12>  C                  2.39581061    0.75205293    0.09551743
| 13>  C                  1.62577918    2.08571050    0.09554027
| 14>  C                  0.27057274    2.08567496    0.09560319
| 15>  C                 -0.49939037    0.75197568    0.09566016
| 16>  C                 -0.29764057   -1.58554271   -0.79343964
| 17>  C                  0.94824467   -2.30482350   -1.34298703
| 18>  C                  2.19411771   -1.58546950   -0.79354640
| 19>  C                  3.29047211   -1.43602853   -1.57600328
| 20>  C                  3.64167728    0.92187162   -0.79363343
| 21>  C                  2.39573304    3.07979634   -0.79359880
| 22>  C                  1.71807245    3.95454959   -1.57601146
| 23>  C                  0.17807323    3.95450284   -1.57594943
| 24>  C                 -0.49948258    3.07971459   -0.79350035
| 25>  C                 -1.74536573    2.36036611   -1.34296092
| 26>  C                 -1.74530211    0.92174422   -0.79343253
| 27>  C                 -2.16407157   -0.10248057   -1.57583829
| 28>  C                 -1.39404387   -1.43614394   -1.57584190
| 29>  C                  0.94821837   -2.78840832   -2.60897537
| 30>  C                 -0.29770920   -2.61863957   -3.49806243
| 31>  C                 -1.39408517   -1.98566616   -3.01446536
| 32>  C                 -2.16414938   -0.99163127   -3.90356997
| 33>  C                 -2.64002792    0.17224245   -3.01444935
| 34>  C                 -2.64009316    1.43823148   -3.49803454
| 35>  C                 -2.16420539    2.60212618   -2.60894011
| 36>  C                 -1.39425314    3.59619146   -3.49808944
| 37>  C                 -0.29787072    4.22921858   -3.01456765
| 38>  C                  3.64162490    2.36049587   -1.34314427
| 39>  C                  2.19382128    3.19618464   -5.71927447
| 40>  C                  3.29022186    3.04678758   -4.93687678
| 41>  C                  4.06025620    1.71312889   -4.93687731
| 42>  C                  3.64148891    0.68889917   -5.71927852
| 43>  C                  2.39556326    0.85866399   -6.60836629
| 44>  C                  0.17794164    2.03224124   -6.60829905
| 45>  C                 -0.29793775    3.19611649   -5.71917848
| 46>  C                  0.94794358    3.91547025   -5.16973199
| 47>  C                  0.94798075    4.39904412   -3.90374283
| 48>  C                  2.19389569    4.22928771   -3.01466412
| 49>  C                  3.29026522    3.59630751   -3.49826617
| 50>  C                  4.53621920    1.43839705   -3.49826888
| 51>  C                  4.53628351    0.17240824   -3.01469400
| 52>  C                  4.06040419   -0.99148381   -3.90378394
| 53>  C                  3.64156049   -0.74972201   -5.16976724
| 54>  C                  2.39566533   -1.46907298   -5.71922364
| 55>  C                  1.62559666   -0.47504074   -6.60832906
| 56>  C                  0.27039476   -0.47507361   -6.60827661
| 57>  C                 -0.49962950    0.85858503   -6.60825947
| 58>  C                 -1.39429089    3.04667285   -4.93671591
| 59>  C                 -2.16426181    1.71297411   -4.93667364
| 60>  C                 -1.74548392    0.68876342   -5.71909678
| 61>  C                 -1.74542598   -0.74985794   -5.16957309
| 62>  C                 -0.49954852   -1.46914680   -5.71912001
| 63>  C                  0.17810642   -2.34389385   -4.93670439
| 64>  C                  1.71811031   -2.34386028   -4.93675859
| 65>  C                  2.19406394   -2.61858453   -3.49813556
| 66>  C                  3.29044415   -1.98556035   -3.01462044
| 67>  C                  4.06033885    2.60227132   -2.60915116
| 68>  C                  4.06045287   -0.10233677   -1.57605659
| 69>  C                  1.71793581    2.03228443   -6.60835736
| 70> *
| 71>
| 72>                          ****END OF INPUT****

CARTESIAN COORDINATES (ANGSTROEM)
---------------------------------
  C      0.178234   -0.421643    0.095651
  C      1.718235   -0.421599    0.095573
  C      2.395811    0.752053    0.095517
  C      1.625779    2.085710    0.095540
  C      0.270573    2.085675    0.095603
  C     -0.499390    0.751976    0.095660
  C     -0.297641   -1.585543   -0.793440
  C      0.948245   -2.304823   -1.342987
  C      2.194118   -1.585469   -0.793546
  C      3.290472   -1.436029   -1.576003
  C      3.641677    0.921872   -0.793633
  C      2.395733    3.079796   -0.793599
  C      1.718072    3.954550   -1.576011
  C      0.178073    3.954503   -1.575949
  C     -0.499483    3.079715   -0.793500
  C     -1.745366    2.360366   -1.342961
  C     -1.745302    0.921744   -0.793433
  C     -2.164072   -0.102481   -1.575838
  C     -1.394044   -1.436144   -1.575842
  C      0.948218   -2.788408   -2.608975
  C     -0.297709   -2.618640   -3.498062
  C     -1.394085   -1.985666   -3.014465
  C     -2.164149   -0.991631   -3.903570
  C     -2.640028    0.172242   -3.014449
  C     -2.640093    1.438231   -3.498035
  C     -2.164205    2.602126   -2.608940
  C     -1.394253    3.596191   -3.498089
  C     -0.297871    4.229219   -3.014568
  C      3.641625    2.360496   -1.343144
  C      2.193821    3.196185   -5.719274
  C      3.290222    3.046788   -4.936877
  C      4.060256    1.713129   -4.936877
  C      3.641489    0.688899   -5.719279
  C      2.395563    0.858664   -6.608366
  C      0.177942    2.032241   -6.608299
  C     -0.297938    3.196116   -5.719178
  C      0.947944    3.915470   -5.169732
  C      0.947981    4.399044   -3.903743
  C      2.193896    4.229288   -3.014664
  C      3.290265    3.596308   -3.498266
  C      4.536219    1.438397   -3.498269
  C      4.536284    0.172408   -3.014694
  C      4.060404   -0.991484   -3.903784
  C      3.641560   -0.749722   -5.169767
  C      2.395665   -1.469073   -5.719224
  C      1.625597   -0.475041   -6.608329
  C      0.270395   -0.475074   -6.608277
  C     -0.499629    0.858585   -6.608259
  C     -1.394291    3.046673   -4.936716
  C     -2.164262    1.712974   -4.936674
  C     -1.745484    0.688763   -5.719097
  C     -1.745426   -0.749858   -5.169573
  C     -0.499549   -1.469147   -5.719120
  C      0.178106   -2.343894   -4.936704
  C      1.718110   -2.343860   -4.936759
  C      2.194064   -2.618585   -3.498136
  C      3.290444   -1.985560   -3.014620
  C      4.060339    2.602271   -2.609151
  C      4.060453   -0.102337   -1.576057
  C      1.717936    2.032284   -6.608357

 Total Charge           Charge          ....    0
 Multiplicity           Mult            ....    1
 Number of Electrons    NEL             ....  360
 Basis Dimension        Dim             ....  540

ORBITAL ENERGIES
----------------
                 SPIN UP ORBITALS
  NO   OCC          E(Eh)            E(eV)
   0   1.0000     -11.265579      -306.5520
   1   1.0000     -11.265575      -306.5519
   2   1.0000     -11.265303      -306.5445
   3   1.0000     -11.265300      -306.5444
   4   1.0000     -11.265009      -306.5365
   5   1.0000     -11.265006      -306.5364
   6   1.0000     -11.264898      -306.5335
   7   1.0000     -11.264893      -306.5333
   8   1.0000     -11.264831      -306.5316
   9   1.0000     -11.264816      -306.5312
  10   1.0000     -11.264703      -306.5281
  11   1.0000     -11.264678      -306.5275
  12   1.0000     -11.264588      -306.5250
  13   1.0000     -11.264581      -306.5248
  14   1.0000     -11.264576      -306.5247
  15   1.0000     -11.264564      -306.5244
  16   1.0000     -11.264400      -306.5199
  17   1.0000     -11.264399      -306.5199
  18   1.0000     -11.264208      -306.5147
  19   1.0000     -11.264197      -306.5144
  20   1.0000     -11.264087      -306.5114
  21   1.0000     -11.264060      -306.5107
  22   1.0000     -11.264025      -306.5097
  23   1.0000     -11.264002      -306.5091
  24   1.0000     -11.263954      -306.5078
  25   1.0000     -11.263927      -306.5070
  26   1.0000     -11.263257      -306.4888
  27   1.0000     -11.263254      -306.4887
  28   1.0000     -11.263051      -306.4832
  29   1.0000     -11.263046      -306.4831
  30   1.0000     -11.256653      -306.3091
  31   1.0000     -11.256651      -306.3091
  32   1.0000     -11.255820      -306.2864
  33   1.0000     -11.255816      -306.2863
  34   1.0000     -11.255408      -306.2752
  35   1.0000     -11.255406      -306.2752
  36   1.0000     -11.253017      -306.2102
  37   1.0000     -11.253016      -306.2101
  38   1.0000     -11.249904      -306.1255
  39   1.0000     -11.249904      -306.1254
  40   1.0000     -11.249662      -306.1189
  41   1.0000     -11.249661      -306.1188
  42   1.0000     -11.249574      -306.1165
  43   1.0000     -11.249570      -306.1164
  44   1.0000     -11.249446      -306.1130
  45   1.0000     -11.249446      -306.1130
  46   1.0000     -11.247124      -306.0498
  47   1.0000     -11.247123      -306.0498
  48   1.0000     -11.246511      -306.0331
  49   1.0000     -11.246510      -306.0331
  50   1.0000     -11.246293      -306.0272
  51   1.0000     -11.246291      -306.0271
  52   1.0000     -11.245664      -306.0101
  53   1.0000     -11.245664      -306.0101
  54   1.0000     -11.245090      -305.9944
  55   1.0000     -11.245088      -305.9944
  56   1.0000     -11.244821      -305.9871
  57   1.0000     -11.244821      -305.9871
  58   1.0000     -11.244550      -305.9798
  59   1.0000     -11.244548      -305.9797
  60   1.0000      -1.277617       -34.7657
  61   1.0000      -1.255463       -34.1629
  62   1.0000      -1.254153       -34.1272
  63   1.0000      -1.253639       -34.1132
  64   1.0000      -1.211358       -32.9627
  65   1.0000      -1.209733       -32.9185
  66   1.0000      -1.209122       -32.9019
  67   1.0000      -1.207999       -32.8713
  68   1.0000      -1.206593       -32.8331
  69   1.0000      -1.147736       -31.2315
  70   1.0000      -1.146418       -31.1956
  71   1.0000      -1.145453       -31.1694
  72   1.0000      -1.144604       -31.1462
  73   1.0000      -1.142675       -31.0938
  74   1.0000      -1.140747       -31.0413
  75   1.0000      -1.138480       -30.9796
  76   1.0000      -1.076932       -29.3048
  77   1.0000      -1.075263       -29.2594
  78   1.0000      -1.071361       -29.1532
  79   1.0000      -1.066841       -29.0302
  80   1.0000      -1.063039       -28.9268
  81   1.0000      -1.062743       -28.9187
  82   1.0000      -1.054273       -28.6882
  83   1.0000      -1.051659       -28.6171
  84   1.0000      -1.048049       -28.5189
  85   1.0000      -1.008997       -27.4562
  86   1.0000      -1.008824       -27.4515
  87   1.0000      -1.003483       -27.3062
  88   1.0000      -1.002355       -27.2755
  89   1.0000      -1.000974       -27.2379
  90   1.0000      -0.923903       -25.1407
  91   1.0000      -0.921005       -25.0618
  92   1.0000      -0.920335       -25.0436
  93   1.0000      -0.898785       -24.4572
  94   1.0000      -0.897953       -24.4345
  95   1.0000      -0.897760       -24.4293
  96   1.0000      -0.879788       -23.9402
  97   1.0000      -0.876966       -23.8635
  98   1.0000      -0.874559       -23.7980
  99   1.0000      -0.873147       -23.7595
 100   1.0000      -0.872619       -23.7452
 101   1.0000      -0.829413       -22.5695
 102   1.0000      -0.828264       -22.5382
 103   1.0000      -0.826849       -22.4997
 104   1.0000      -0.789696       -21.4887
 105   1.0000      -0.745526       -20.2868
 106   1.0000      -0.744736       -20.2653
 107   1.0000      -0.744410       -20.2564
 108   1.0000      -0.742951       -20.2167
 109   1.0000      -0.736498       -20.0411
 110   1.0000      -0.736172       -20.0323
 111   1.0000      -0.735762       -20.0211
 112   1.0000      -0.735222       -20.0064
 113   1.0000      -0.733993       -19.9730
 114   1.0000      -0.701798       -19.0969
 115   1.0000      -0.701705       -19.0944
 116   1.0000      -0.701478       -19.0882
 117   1.0000      -0.687489       -18.7075
 118   1.0000      -0.687447       -18.7064
 119   1.0000      -0.687170       -18.6989
 120   1.0000      -0.648523       -17.6472
 121   1.0000      -0.635674       -17.2976
 122   1.0000      -0.632430       -17.2093
 123   1.0000      -0.630659       -17.1611
 124   1.0000      -0.629600       -17.1323
 125   1.0000      -0.629227       -17.1221
 126   1.0000      -0.628360       -17.0985
 127   1.0000      -0.628226       -17.0949
 128   1.0000      -0.627833       -17.0842
 129   1.0000      -0.627692       -17.0804
 130   1.0000      -0.626837       -17.0571
 131   1.0000      -0.626614       -17.0510
 132   1.0000      -0.626153       -17.0385
 133   1.0000      -0.625884       -17.0312
 134   1.0000      -0.618018       -16.8171
 135   1.0000      -0.615026       -16.7357
 136   1.0000      -0.614500       -16.7214
 137   1.0000      -0.579729       -15.7752
 138   1.0000      -0.578486       -15.7414
 139   1.0000      -0.577457       -15.7134
 140   1.0000      -0.576614       -15.6905
 141   1.0000      -0.575742       -15.6667
 142   1.0000      -0.573822       -15.6145
 143   1.0000      -0.569774       -15.5043
 144   1.0000      -0.567587       -15.4448
 145   1.0000      -0.560678       -15.2568
 146   1.0000      -0.557308       -15.1651
 147   1.0000      -0.554730       -15.0950
 148   1.0000      -0.553892       -15.0722
 149   1.0000      -0.499949       -13.6043
 150   1.0000      -0.498710       -13.5706
 151   1.0000      -0.498198       -13.5566
 152   1.0000      -0.497958       -13.5501
 153   1.0000      -0.497283       -13.5318
 154   1.0000      -0.496023       -13.4975
 155   1.0000      -0.495387       -13.4802
 156   1.0000      -0.491890       -13.3850
 157   1.0000      -0.490532       -13.3480
 158   1.0000      -0.485810       -13.2196
 159   1.0000      -0.484772       -13.1913
 160   1.0000      -0.484480       -13.1834
 161   1.0000      -0.482805       -13.1378
 162   1.0000      -0.481644       -13.1062
 163   1.0000      -0.481457       -13.1011
 164   1.0000      -0.480200       -13.0669
 165   1.0000      -0.473471       -12.8838
 166   1.0000      -0.434417       -11.8211
 167   1.0000      -0.430120       -11.7042
 168   1.0000      -0.422133       -11.4868
 169   1.0000      -0.410498       -11.1702
 170   1.0000      -0.403924       -10.9913
 171   1.0000      -0.401303       -10.9200
 172   1.0000      -0.371795       -10.1171
 173   1.0000      -0.368126       -10.0172
 174   1.0000      -0.367664       -10.0047
 175   1.0000      -0.360439        -9.8080
 176   1.0000      -0.348294        -9.4776
 177   1.0000      -0.341574        -9.2947
 178   1.0000      -0.337609        -9.1868
 179   1.0000      -0.335791        -9.1373
 180   0.0000       0.024303         0.6613
 181   0.0000       0.030679         0.8348
 182   0.0000       0.038129         1.0375
 183   0.0000       0.041872         1.1394
 184   0.0000       0.057991         1.5780

                 SPIN DOWN ORBITALS
  NO   OCC          E(Eh)            E(eV)
   0   1.0000     -11.265576      -306.5519
   1   1.0000     -11.265575      -306.5519
   2   1.0000     -11.265336      -306.5454
   3   1.0000     -11.265333      -306.5453
   4   1.0000     -11.265011      -306.5365
   5   1.0000     -11.265009      -306.5365
   6   1.0000     -11.264896      -306.5334
   7   1.0000     -11.264878      -306.5329
   8   1.0000     -11.264812      -306.5311
   9   1.0000     -11.264788      -306.5305
  10   1.0000     -11.264697      -306.5280
  11   1.0000     -11.264687      -306.5277
  12   1.0000     -11.264602      -306.5254
  13   1.0000     -11.264594      -306.5252
  14   1.0000     -11.264508      -306.5229
  15   1.0000     -11.264473      -306.5219
  16   1.0000     -11.264445      -306.5211
  17   1.0000     -11.264403      -306.5200
  18   1.0000     -11.264313      -306.5176
  19   1.0000     -11.264308      -306.5174
  20   1.0000     -11.264238      -306.5155
  21   1.0000     -11.264212      -306.5148
  22   1.0000     -11.264004      -306.5091
  23   1.0000     -11.263983      -306.5086
  24   1.0000     -11.263891      -306.5061
  25   1.0000     -11.263875      -306.5056
  26   1.0000     -11.263352      -306.4914
  27   1.0000     -11.263351      -306.4914
  28   1.0000     -11.263237      -306.4883
  29   1.0000     -11.263232      -306.4881
  30   1.0000     -11.256254      -306.2982
  31   1.0000     -11.256252      -306.2982
  32   1.0000     -11.255215      -306.2700
  33   1.0000     -11.255212      -306.2699
  34   1.0000     -11.254961      -306.2630
  35   1.0000     -11.254956      -306.2629
  36   1.0000     -11.253693      -306.2286
  37   1.0000     -11.253692      -306.2285
  38   1.0000     -11.251010      -306.1555
  39   1.0000     -11.251010      -306.1555
  40   1.0000     -11.250575      -306.1437
  41   1.0000     -11.250572      -306.1436
  42   1.0000     -11.248879      -306.0976
  43   1.0000     -11.248878      -306.0975
  44   1.0000     -11.248451      -306.0859
  45   1.0000     -11.248451      -306.0859
  46   1.0000     -11.247009      -306.0467
  47   1.0000     -11.247009      -306.0467
  48   1.0000     -11.246644      -306.0367
  49   1.0000     -11.246643      -306.0367
  50   1.0000     -11.246208      -306.0249
  51   1.0000     -11.246206      -306.0248
  52   1.0000     -11.245695      -306.0109
  53   1.0000     -11.245694      -306.0109
  54   1.0000     -11.245075      -305.9941
  55   1.0000     -11.245073      -305.9940
  56   1.0000     -11.244889      -305.9890
  57   1.0000     -11.244889      -305.9890
  58   1.0000     -11.244550      -305.9797
  59   1.0000     -11.244548      -305.9797
  60   1.0000      -1.277616       -34.7657
  61   1.0000      -1.255140       -34.1541
  62   1.0000      -1.254739       -34.1432
  63   1.0000      -1.253372       -34.1060
  64   1.0000      -1.211163       -32.9574
  65   1.0000      -1.210025       -32.9264
  66   1.0000      -1.208964       -32.8976
  67   1.0000      -1.208090       -32.8738
  68   1.0000      -1.206570       -32.8324
  69   1.0000      -1.147866       -31.2350
  70   1.0000      -1.146910       -31.2090
  71   1.0000      -1.144981       -31.1565
  72   1.0000      -1.144734       -31.1498
  73   1.0000      -1.142234       -31.0818
  74   1.0000      -1.140217       -31.0269
  75   1.0000      -1.139175       -30.9985
  76   1.0000      -1.077017       -29.3071
  77   1.0000      -1.074395       -29.2358
  78   1.0000      -1.071887       -29.1675
  79   1.0000      -1.067171       -29.0392
  80   1.0000      -1.063115       -28.9288
  81   1.0000      -1.062670       -28.9167
  82   1.0000      -1.055257       -28.7150
  83   1.0000      -1.050335       -28.5811
  84   1.0000      -1.048319       -28.5262
  85   1.0000      -1.009247       -27.4630
  86   1.0000      -1.008727       -27.4489
  87   1.0000      -1.003740       -27.3132
  88   1.0000      -1.002392       -27.2765
  89   1.0000      -1.000531       -27.2258
  90   1.0000      -0.923885       -25.1402
  91   1.0000      -0.921008       -25.0619
  92   1.0000      -0.920321       -25.0432
  93   1.0000      -0.898669       -24.4540
  94   1.0000      -0.898386       -24.4463
  95   1.0000      -0.897481       -24.4217
  96   1.0000      -0.879380       -23.9291
  97   1.0000      -0.877198       -23.8698
  98   1.0000      -0.874980       -23.8094
  99   1.0000      -0.872948       -23.7541
 100   1.0000      -0.872580       -23.7441
 101   1.0000      -0.829376       -22.5685
 102   1.0000      -0.828421       -22.5425
 103   1.0000      -0.826727       -22.4964
 104   1.0000      -0.789694       -21.4887
 105   1.0000      -0.745835       -20.2952
 106   1.0000      -0.744451       -20.2575
 107   1.0000      -0.744152       -20.2494
 108   1.0000      -0.743187       -20.2231
 109   1.0000      -0.736444       -20.0397
 110   1.0000      -0.736051       -20.0290
 111   1.0000      -0.735627       -20.0174
 112   1.0000      -0.735482       -20.0135
 113   1.0000      -0.734042       -19.9743
 114   1.0000      -0.701870       -19.0988
 115   1.0000      -0.701602       -19.0916
 116   1.0000      -0.701507       -19.0890
 117   1.0000      -0.687550       -18.7092
 118   1.0000      -0.687334       -18.7033
 119   1.0000      -0.687228       -18.7004
 120   1.0000      -0.648467       -17.6457
 121   1.0000      -0.635234       -17.2856
 122   1.0000      -0.632624       -17.2146
 123   1.0000      -0.631114       -17.1735
 124   1.0000      -0.629326       -17.1248
 125   1.0000      -0.629203       -17.1215
 126   1.0000      -0.628377       -17.0990
 127   1.0000      -0.628196       -17.0941
 128   1.0000      -0.627874       -17.0853
 129   1.0000      -0.627770       -17.0825
 130   1.0000      -0.626846       -17.0574
 131   1.0000      -0.626551       -17.0493
 132   1.0000      -0.626071       -17.0363
 133   1.0000      -0.625913       -17.0320
 134   1.0000      -0.617450       -16.8017
 135   1.0000      -0.616350       -16.7717
 136   1.0000      -0.613809       -16.7026
 137   1.0000      -0.579309       -15.7638
 138   1.0000      -0.578871       -15.7519
 139   1.0000      -0.577657       -15.7188
 140   1.0000      -0.576412       -15.6850
 141   1.0000      -0.575640       -15.6640
 142   1.0000      -0.574764       -15.6401
 143   1.0000      -0.570257       -15.5175
 144   1.0000      -0.566597       -15.4179
 145   1.0000      -0.558368       -15.1940
 146   1.0000      -0.557457       -15.1692
 147   1.0000      -0.556617       -15.1463
 148   1.0000      -0.553903       -15.0725
 149   1.0000      -0.499977       -13.6051
 150   1.0000      -0.498779       -13.5725
 151   1.0000      -0.498221       -13.5573
 152   1.0000      -0.497951       -13.5499
 153   1.0000      -0.497372       -13.5342
 154   1.0000      -0.496086       -13.4992
 155   1.0000      -0.496043       -13.4980
 156   1.0000      -0.491320       -13.3695
 157   1.0000      -0.491080       -13.3630
 158   1.0000      -0.484944       -13.1960
 159   1.0000      -0.484674       -13.1887
 160   1.0000      -0.483982       -13.1698
 161   1.0000      -0.482766       -13.1367
 162   1.0000      -0.481886       -13.1128
 163   1.0000      -0.481158       -13.0930
 164   1.0000      -0.477839       -13.0027
 165   1.0000      -0.476503       -12.9663
 166   1.0000      -0.434493       -11.8232
 167   1.0000      -0.428387       -11.6570
 168   1.0000      -0.422718       -11.5028
 169   1.0000      -0.411245       -11.1905
 170   1.0000      -0.404708       -11.0127
 171   1.0000      -0.400888       -10.9087
 172   1.0000      -0.372256       -10.1296
 173   1.0000      -0.371932       -10.1208
 174   1.0000      -0.367870       -10.0102
 175   1.0000      -0.355828        -9.6826
 176   1.0000      -0.348716        -9.4890
 177   1.0000      -0.343032        -9.3344
 178   1.0000      -0.339595        -9.2408
 179   1.0000      -0.331996        -9.0341
 180   0.0000       0.024403         0.6640
 181   0.0000       0.031238         0.8500
 182   0.0000       0.037898         1.0313
 183   0.0000       0.044606         1.2138
 184   0.0000       0.054625         1.4864

MULLIKEN ATOMIC CHARGES AND SPIN POPULATIONS
--------------------------------------------
   0 C :    0.001020   -0.951183
   1 C :   -0.002543    0.575952
   2 C :   -0.000045   -0.567493
   3 C :    0.000406    1.028885
   4 C :    0.001090   -1.045959
   5 C :    0.001044    0.946032
   6 C :    0.001281    0.995572
   7 C :   -0.002061   -0.844292
   8 C :   -0.001197    0.439240
   9 C :   -0.001878   -0.442540
  10 C :    0.003215   -0.762971
  11 C :    0.000906   -1.111895
  12 C :    0.000893    1.110938
  13 C :    0.000761   -0.995602
  14 C :   -0.000140    1.007113
  15 C :    0.002916   -0.772616
  16 C :   -0.002908   -0.428626
  17 C :   -0.002719    0.427808
  18 C :    0.000965   -0.978965
  19 C :    0.002934    0.810165
  20 C :    0.000039   -1.081235
  21 C :    0.001009    1.090780
  22 C :    0.000010   -1.064767
  23 C :    0.003326    0.831191
  24 C :   -0.001082   -0.879690
  25 C :   -0.001302    0.809956
  26 C :   -0.003500   -0.459865
  27 C :   -0.000184    0.453147
  28 C :    0.000061    1.062430
  29 C :    0.001281    0.995555
  30 C :    0.000962   -0.978942
  31 C :   -0.002719    0.427753
  32 C :   -0.002908   -0.428572
  33 C :    0.001048    0.946026
  34 C :   -0.002542    0.575966
  35 C :   -0.001194    0.439219
  36 C :   -0.002063   -0.844287
  37 C :    0.002934    0.810149
  38 C :    0.000037   -1.081229
  39 C :    0.001011    1.090776
  40 C :    0.003325    0.831191
  41 C :   -0.001086   -0.879685
  42 C :   -0.001297    0.809954
  43 C :    0.002914   -0.772624
  44 C :   -0.000139    1.007122
  45 C :    0.001092   -1.045958
  46 C :    0.000403    1.028880
  47 C :   -0.000047   -0.567511
  48 C :   -0.001876   -0.442511
  49 C :   -0.002319    0.798489
  50 C :    0.003215   -0.762964
  51 C :    0.000063    1.062421
  52 C :    0.000901   -1.111881
  53 C :    0.000892    1.110928
  54 C :    0.000768   -0.995606
  55 C :   -0.000190    0.453065
  56 C :   -0.003498   -0.459783
  57 C :    0.000015   -1.064773
  58 C :   -0.002318    0.798495
  59 C :    0.001018   -0.951171
Sum of atomic charges         :    0.0000000

LOEWDIN ATOMIC CHARGES AND SPIN POPULATIONS
-------------------------------------------
   0 C :    0.000347   -0.603424
   1 C :   -0.001629    0.378980
   2 C :   -0.000363   -0.383398
   3 C :    0.000543    0.654806
   4 C :    0.001329   -0.659042
   5 C :    0.000386    0.603294
   6 C :    0.001063    0.628435
   7 C :   -0.001137   -0.531333
   8 C :   -0.001325    0.293265
   9 C :   -0.001596   -0.292793
  10 C :    0.001795   -0.513289
  11 C :    0.001300   -0.701636
  12 C :    0.001196    0.701273
  13 C :    0.000805   -0.636053
  14 C :   -0.000244    0.633466
  15 C :    0.001608   -0.516306
  16 C :   -0.001886   -0.289119
  17 C :   -0.002221    0.289547
  18 C :    0.000647   -0.625146
  19 C :    0.001995    0.542003
  20 C :    0.000072   -0.683203
  21 C :    0.001375    0.688225
  22 C :   -0.000033   -0.671373
  23 C :    0.002151    0.555884
  24 C :   -0.000397   -0.551623
  25 C :   -0.000874    0.511104
  26 C :   -0.002625   -0.303513
  27 C :   -0.000939    0.306229
  28 C :    0.000069    0.671491
  29 C :    0.001063    0.628421
  30 C :    0.000646   -0.625128
  31 C :   -0.002221    0.289510
  32 C :   -0.001887   -0.289084
  33 C :    0.000386    0.603293
  34 C :   -0.001628    0.378989
  35 C :   -0.001324    0.293253
  36 C :   -0.001137   -0.531331
  37 C :    0.001994    0.541992
  38 C :    0.000071   -0.683199
  39 C :    0.001376    0.688222
  40 C :    0.002150    0.555881
  41 C :   -0.000398   -0.551616
  42 C :   -0.000872    0.511109
  43 C :    0.001608   -0.516311
  44 C :   -0.000245    0.633476
  45 C :    0.001329   -0.659042
  46 C :    0.000544    0.654801
  47 C :   -0.000363   -0.383411
  48 C :   -0.001595   -0.292776
  49 C :   -0.001411    0.503253
  50 C :    0.001795   -0.513286
  51 C :    0.000069    0.671481
  52 C :    0.001299   -0.701622
  53 C :    0.001194    0.701262
  54 C :    0.000807   -0.636063
  55 C :   -0.000942    0.306173
  56 C :   -0.002624   -0.303458
  57 C :   -0.000032   -0.671379
  58 C :   -0.001409    0.503256
  59 C :    0.000345   -0.603414

  Mayer bond orders larger than 0.100000
B(  0-C ,  1-C ) :   1.0370 B(  0-C ,  5-C ) :   1.3255 B(  0-C ,  6-C ) :   1.0492
B(  1-C ,  2-C ) :   1.5225 B(  1-C ,  8-C ) :   1.0241 B(  2-C ,  3-C ) :   1.0411
B(  2-C , 10-C ) :   1.0062 B(  3-C ,  4-C ) :   1.2874 B(  3-C , 11-C ) :   1.0307
B(  4-C ,  5-C ) :   1.0456 B(  4-C , 14-C ) :   1.0264 B(  5-C , 16-C ) :   1.0391
B(  6-C ,  7-C ) :   1.0295 B(  6-C , 18-C ) :   1.3108 B(  7-C ,  8-C ) :   1.0574
B(  7-C , 19-C ) :   1.3921 B(  8-C ,  9-C ) :   1.5518 B(  9-C , 56-C ) :   1.0300
B(  9-C , 58-C ) :   1.0554 B( 10-C , 28-C ) :   1.0480 B( 10-C , 58-C ) :   1.4144
B( 11-C , 12-C ) :   1.2573 B( 11-C , 28-C ) :   1.0270 B( 12-C , 13-C ) :   1.0309
B( 12-C , 38-C ) :   1.0270 B( 13-C , 14-C ) :   1.2989 B( 13-C , 27-C ) :   1.0466
B( 14-C , 15-C ) :   1.0586 B( 15-C , 16-C ) :   1.0067 B( 15-C , 25-C ) :   1.4064
B( 16-C , 17-C ) :   1.5873 B( 17-C , 18-C ) :   1.0394 B( 17-C , 23-C ) :   1.0037
B( 18-C , 21-C ) :   1.0379 B( 19-C , 20-C ) :   1.0410 B( 19-C , 55-C ) :   1.0119
B( 20-C , 21-C ) :   1.2643 B( 20-C , 53-C ) :   1.0270 B( 21-C , 22-C ) :   1.0263
B( 22-C , 23-C ) :   1.0494 B( 22-C , 51-C ) :   1.2690 B( 23-C , 24-C ) :   1.3817
B( 24-C , 25-C ) :   1.0486 B( 24-C , 49-C ) :   1.0331 B( 25-C , 26-C ) :   1.0422
B( 26-C , 27-C ) :   1.5596 B( 26-C , 48-C ) :   1.0300 B( 27-C , 37-C ) :   1.0119
B( 28-C , 57-C ) :   1.2690 B( 29-C , 30-C ) :   1.3108 B( 29-C , 36-C ) :   1.0295
B( 29-C , 59-C ) :   1.0492 B( 30-C , 31-C ) :   1.0394 B( 30-C , 39-C ) :   1.0379
B( 31-C , 32-C ) :   1.5873 B( 31-C , 40-C ) :   1.0037 B( 32-C , 33-C ) :   1.0391
B( 32-C , 43-C ) :   1.0067 B( 33-C , 45-C ) :   1.0456 B( 33-C , 59-C ) :   1.3255
B( 34-C , 35-C ) :   1.0241 B( 34-C , 47-C ) :   1.5224 B( 34-C , 59-C ) :   1.0370
B( 35-C , 36-C ) :   1.0574 B( 35-C , 48-C ) :   1.5518 B( 36-C , 37-C ) :   1.3921
B( 37-C , 38-C ) :   1.0411 B( 38-C , 39-C ) :   1.2643 B( 39-C , 57-C ) :   1.0263
B( 40-C , 41-C ) :   1.3817 B( 40-C , 57-C ) :   1.0494 B( 41-C , 42-C ) :   1.0487
B( 41-C , 58-C ) :   1.0331 B( 42-C , 43-C ) :   1.4064 B( 42-C , 56-C ) :   1.0422
B( 43-C , 44-C ) :   1.0586 B( 44-C , 45-C ) :   1.0264 B( 44-C , 54-C ) :   1.2989
B( 45-C , 46-C ) :   1.2874 B( 46-C , 47-C ) :   1.0411 B( 46-C , 52-C ) :   1.0307
B( 47-C , 50-C ) :   1.0062 B( 48-C , 49-C ) :   1.0554 B( 49-C , 50-C ) :   1.4144
B( 50-C , 51-C ) :   1.0480 B( 51-C , 52-C ) :   1.0270 B( 52-C , 53-C ) :   1.2573
B( 53-C , 54-C ) :   1.0309 B( 54-C , 55-C ) :   1.0466 B( 55-C , 56-C ) :   1.5596

FINAL SINGLE POINT ENERGY     -2258.891320698771

DIPOLE MOMENT
-------------
                                X             Y             Z
Electronic contribution:      0.00000       0.00000       0.00001
Nuclear contribution   :     -0.00000      -0.00000       0.00000
                        -----------------------------------------
Total Dipole Moment    :      0.00000       0.00000       0.00001
                        -----------------------------------------
Magnitude (a.u.)       :      0.00001
Magnitude (Debye)      :      0.00001

Rotational constants in cm-1:     0.002631     0.002631     0.002631
Rotational constants in MHz :    78.889433    78.889360    78.889206

                             ****ORCA TERMINATED NORMALLY****
TOTAL RUN TIME: 0 days 0 hours 54 minutes 39 seconds 813 msec
