 Gaussian 16, Revision A.03,
 Gaussian 16:  ES64L-G16RevA.03 25-Dec-2016

 ---------------
 #p RHF/6-31G(d)
 ---------------

 -------------------
 Propene SP 6-31G(d)
 -------------------
 Symbolic Z-matrix:
 Charge =  0 Multiplicity = 1

                         Standard orientation:
 ---------------------------------------------------------------------
 Center     Atomic      Atomic             Coordinates (Angstroms)
 Number     Number       Type             X           Y           Z
 ---------------------------------------------------------------------
      1          6           0        1.273694    0.103415    0.000000
      2          6           0       -0.000000    0.519712    0.000000
      3          6           0       -1.131346   -0.495403    0.000000
      4          1           0        1.496403   -0.953373    0.000000
      5          1           0        2.077545    0.824681    0.000000
      6          1           0       -0.222709    1.576500    0.000000
      7          1           0       -2.088089    0.026844    0.000000
      8          1           0       -1.058620   -1.120498    0.889981
      9          1           0       -1.058620   -1.120498   -0.889981
 ---------------------------------------------------------------------

 SCF Done:  E(RHF) =  -117.065698502     A.U. after   12 cycles

 The electronic state is 1-A'.
 Alpha  occ. eigenvalues --  -11.23029 -11.21879 -11.21373  -1.05695  -0.92399
 Alpha  occ. eigenvalues --   -0.75306  -0.63327  -0.57622  -0.56883  -0.51677
 Alpha  occ. eigenvalues --   -0.48762  -0.34927
 Alpha virt. eigenvalues --    0.17755   0.25440   0.27523   0.30164   0.34107
 Alpha virt. eigenvalues --    0.34822   0.35409   0.44416   0.50286   0.69077
 Alpha virt. eigenvalues --    0.74432   0.77026   0.80923   0.83472   0.90316

 Mulliken charges:
               1
     1  C   -0.388512
     2  C   -0.156716
     3  C   -0.506952
     4  H    0.170145
     5  H    0.173512
     6  H    0.184013
     7  H    0.165349
     8  H    0.179581
     9  H    0.179581
 Sum of Mulliken charges =   0.00000

 Dipole moment (field-independent basis, Debye):
    X=             -0.3003    Y=             -0.0313    Z=              0.0000  Tot=              0.3019
 Quadrupole moment (field-independent basis, Debye-Ang):
   XX=            -19.4327   YY=            -18.7732   ZZ=            -21.7236
   XY=             -0.3352   XZ=             -0.0000   YZ=             -0.0000

 Normal termination of Gaussian 16 at Mon May  2 11:19:20 2022.
