 Gaussian 16, Revision A.03,
 Gaussian 16:  ES64L-G16RevA.03 25-Dec-2016

 --------------------------
 #p OPT FREQ M062X/6-31g(d)
 --------------------------

 ------
 tBuOOH
 ------
 Symbolic Z-matrix:
 Charge =  0 Multiplicity = 1

 SCF Done:  E(RM062X) =  -308.577310974     A.U. after   16 cycles
 SCF Done:  E(RM062X) =  -308.611568370     A.U. after   14 cycles
 SCF Done:  E(RM062X) =  -308.643464581     A.U. after   13 cycles
 SCF Done:  E(RM062X) =  -308.646768157     A.U. after   14 cycles
 SCF Done:  E(RM062X) =  -308.650636443     A.U. after   13 cycles
 SCF Done:  E(RM062X) =  -308.652304990     A.U. after   11 cycles
 SCF Done:  E(RM062X) =  -308.652383242     A.U. after   10 cycles
 SCF Done:  E(RM062X) =  -308.652387260     A.U. after    9 cycles
 SCF Done:  E(RM062X) =  -308.652387514     A.U. after    8 cycles
 SCF Done:  E(RM062X) =  -308.652387582     A.U. after    8 cycles
 SCF Done:  E(RM062X) =  -308.652932503     A.U. after   15 cycles
 SCF Done:  E(RM062X) =  -308.653701722     A.U. after   13 cycles
 SCF Done:  E(RM062X) =  -308.653649248     A.U. after   14 cycles
 SCF Done:  E(RM062X) =  -308.653936165     A.U. after   12 cycles
 SCF Done:  E(RM062X) =  -308.654028981     A.U. after   12 cycles
 SCF Done:  E(RM062X) =  -308.654037266     A.U. after   11 cycles
 SCF Done:  E(RM062X) =  -308.654039604     A.U. after    9 cycles
 SCF Done:  E(RM062X) =  -308.654041008     A.U. after    9 cycles
 SCF Done:  E(RM062X) =  -308.654041157     A.U. after    8 cycles
 Optimization completed.
    -- Stationary point found.
 Normal termination of Gaussian 16 at Sat Apr  2 13:03:40 2022.

 --------------------------------------------------------------------
 #P Geom=AllCheck Guess=TCheck SCRF=Check GenChk RM062X/6-31G(d) Freq
 --------------------------------------------------------------------

 Structure from the checkpoint file:  "/apps/users/lcz/exe4/task4/tBuOOH.chk"
 ------
 tBuOOH
 ------
 Charge =  0 Multiplicity = 1

                         Standard orientation:
 ---------------------------------------------------------------------
 Center     Atomic      Atomic             Coordinates (Angstroms)
 Number     Number       Type             X           Y           Z
 ---------------------------------------------------------------------
      1          6           0        0.395930    1.336974    0.765490
      2          6           0        0.379623   -0.000232    0.032509
      3          1           0        0.442030    2.157915    0.044236
      4          1           0       -0.508338    1.452022    1.367373
      5          1           0        1.267255    1.398399    1.424978
      6          6           0        0.287939   -1.173456    1.004177
      7          6           0        1.584966   -0.141343   -0.891015
      8          1           0        0.226799   -2.117587    0.452736
      9          1           0        1.173235   -1.206652    1.646108
     10          1           0       -0.593017   -1.075609    1.643971
     11          1           0        2.508069   -0.109949   -0.305334
     12          1           0        1.544920   -1.090748   -1.432626
     13          1           0        1.602309    0.675372   -1.617757
     14          8           0       -0.719616   -0.036780   -0.892623
     15          8           0       -1.937010    0.108463   -0.163684
     16          1           0       -2.301007   -0.788282   -0.240192
 ---------------------------------------------------------------------

 SCF Done:  E(RM062X) =  -308.654041157     A.U. after    1 cycles

 The electronic state is 1-A.
 Alpha  occ. eigenvalues --  -19.68618 -19.68537 -10.60140 -10.53602 -10.53495
 Alpha  occ. eigenvalues --  -10.52734  -1.24531  -1.02183  -0.87646  -0.78405
 Alpha  occ. eigenvalues --   -0.78068  -0.64287  -0.58908  -0.55165  -0.53470
 Alpha  occ. eigenvalues --   -0.50846  -0.48258  -0.45347  -0.45048  -0.44077
 Alpha  occ. eigenvalues --   -0.42870  -0.40953  -0.38989  -0.36052  -0.32941
 Alpha virt. eigenvalues --    0.10500   0.12026   0.15677   0.18045   0.19345
 Alpha virt. eigenvalues --    0.20004   0.21320   0.21832   0.24284   0.24619
 Alpha virt. eigenvalues --    0.25668   0.27485   0.28023   0.30403   0.30688

 Mulliken charges:
               1
     1  C   -0.475460
     2  C    0.279961
     3  H    0.167925
     4  H    0.182342
     5  H    0.150100
     6  C   -0.495120
     7  C   -0.485282
     8  H    0.158457
     9  H    0.160852
    10  H    0.168523
    11  H    0.161846
    12  H    0.168539
    13  H    0.176144
    14  O   -0.323858
    15  O   -0.425217
    16  H    0.430248
 Sum of Mulliken charges =   0.00000

 Dipole moment (field-independent basis, Debye):
    X=              0.7154    Y=             -1.4349    Z=              0.9335  Tot=              1.8553
 Quadrupole moment (field-independent basis, Debye-Ang):
   XX=            -35.8690   YY=            -36.8771   ZZ=            -39.3210
   XY=              3.8437   XZ=             -0.7492   YZ=              0.3950

  Exact polarizability:  56.805   1.263  49.588  -2.055   0.280  47.557
 Approx polarizability:  63.766   0.587  54.529  -2.046   0.623  55.522

                      1                      2                      3
                      A                      A                      A
 Frequencies --    135.7076               204.5303               229.3887
 Red. masses --      2.2473                 1.2622                 1.0783
 Frc consts  --      0.0244                 0.0311                 0.0334
 IR Inten    --      4.3253                 5.7554               112.9650

                      4                      5                      6
                      A                      A                      A
 Frequencies --    258.2103               267.3766               282.0769
 Red. masses --      1.0623                 1.4057                 1.8026
 Frc consts  --      0.0417                 0.0592                 0.0845
 IR Inten    --      0.2395                14.3357                 5.2482

                      7                      8                      9
                      A                      A                      A
 Frequencies --    347.4106               368.9947               411.6153
 Red. masses --      2.4186                 2.7270                 2.3198
 Frc consts  --      0.1720                 0.2188                 0.2316
 IR Inten    --      2.8459                 1.3577                 0.2948

                     10                     11                     12
                      A                      A                      A
 Frequencies --    472.3252               550.7857               775.8360
 Red. masses --      2.8786                 3.4733                 3.7573
 Frc consts  --      0.3784                 0.6208                 1.3325
 IR Inten    --      8.1623                 4.2741                 1.4966

                     13                     14                     15
                      A                      A                      A
 Frequencies --    919.8771               940.2531               946.9167
 Red. masses --      2.5660                 1.5725                 1.5622
 Frc consts  --      1.2793                 0.8191                 0.8253
 IR Inten    --     13.4665                 0.1373                 1.0109

                     16                     17                     18
                      A                      A                      A
 Frequencies --    970.1762              1043.9500              1054.6765
 Red. masses --      1.2029                 5.3908                 1.4306
 Frc consts  --      0.6671                 3.4615                 0.9376
 IR Inten    --      0.0332                 3.4008                 0.8345

                     19                     20                     21
                      A                      A                      A
 Frequencies --   1068.0877              1269.2499              1294.4991
 Red. masses --      1.5967                 2.5805                 2.4962
 Frc consts  --      1.0732                 2.4493                 2.4646
 IR Inten    --      1.6172                43.7136                16.0560

                     22                     23                     24
                      A                      A                      A
 Frequencies --   1316.3095              1420.7191              1422.0188
 Red. masses --      2.5424                 1.1904                 1.3958
 Frc consts  --      2.5954                 1.4157                 1.6629
 IR Inten    --     14.9091                61.4058                21.6041

                     25                     26                     27
                      A                      A                      A
 Frequencies --   1429.1440              1446.3218              1498.5654
 Red. masses --      1.3417                 1.2470                 1.0468
 Frc consts  --      1.6146                 1.5369                 1.3851
 IR Inten    --     20.3478                 5.0152                 0.1749

                     28                     29                     30
                      A                      A                      A
 Frequencies --   1515.9685              1518.1591              1526.4520
 Red. masses --      1.0481                 1.0470                 1.0730
 Frc consts  --      1.4191                 1.4217                 1.4730
 IR Inten    --      0.4181                 0.3126                 3.6374

                     31                     32                     33
                      A                      A                      A
 Frequencies --   1529.6015              1554.1203              3085.8830
 Red. masses --      1.0608                 1.0637                 1.0358
 Frc consts  --      1.4623                 1.5137                 5.8114
 IR Inten    --      2.1360                 6.1519                16.8554

                     34                     35                     36
                      A                      A                      A
 Frequencies --   3090.6112              3095.0210              3162.8099
 Red. masses --      1.0350                 1.0361                 1.1025
 Frc consts  --      5.8249                 5.8476                 6.4982
 IR Inten    --     13.4984                 7.7561                 9.4724

                     37                     38                     39
                      A                      A                      A
 Frequencies --   3167.9493              3173.6979              3175.4409
 Red. masses --      1.1030                 1.1031                 1.1029
 Frc consts  --      6.5218                 6.5460                 6.5524
 IR Inten    --      9.4109                26.1225                 9.8108

                     40                     41                     42
                      A                      A                      A
 Frequencies --   3178.3542              3186.8136              3784.4068
 Red. masses --      1.1029                 1.1024                 1.0686
 Frc consts  --      6.5645                 6.5963                 9.0166
 IR Inten    --     28.0342                14.6860                35.1110

 - Thermochemistry -
 -------------------
 Temperature   298.150 Kelvin.  Pressure   1.00000 Atm.
 Atom     1 has atomic number  6 and mass  12.00000

 Molecular mass:    90.06808 amu.
 Principal axes and moments of inertia in atomic units:
                           1         2         3
     Eigenvalues --   402.51217 641.03730 642.91168
           X            0.99895   0.02158  -0.04052
           Y           -0.02411   0.99773  -0.06283
           Z            0.03907   0.06374   0.99720
 This molecule is an asymmetric top.
 Rotational symmetry number  1.
 Rotational temperatures (Kelvin)      0.21518     0.13512     0.13472
 Rotational constants (GHZ):           4.48369     2.81535     2.80714
 Zero-point vibrational energy     371382.5 (Joules/Mol)
                                   88.76256 (Kcal/Mol)
 Warning -- explicit consideration of  11 degrees of freedom as
           vibrations may cause significant error
 Vibrational temperatures:    195.25   294.27   330.04   371.51   384.70
          (Kelvin)            405.85   499.85   530.90   592.22   679.57
                              792.46  1116.25  1323.50  1352.81  1362.40
                             1395.87  1502.01  1517.44  1536.74  1826.17
                             1862.50  1893.88  2044.10  2045.97  2056.22
                             2080.93  2156.10  2181.14  2184.29  2196.22
                             2200.76  2236.03  4439.90  4446.70  4453.04
                             4550.58  4557.97  4566.24  4568.75  4572.94
                             4585.11  5444.92

 Zero-point correction=                           0.141452 (Hartree/Particle)
 Thermal correction to Energy=                    0.149287
 Thermal correction to Enthalpy=                  0.150231
 Thermal correction to Gibbs Free Energy=         0.110675
 Sum of electronic and zero-point Energies=           -308.512589
 Sum of electronic and thermal Energies=              -308.504754
 Sum of electronic and thermal Enthalpies=            -308.503810
 Sum of electronic and thermal Free Energies=         -308.543366

                     E (Thermal)             CV                S
                      KCal/Mol        Cal/Mol-Kelvin    Cal/Mol-Kelvin
 Total                   93.679             28.385             83.252
 Electronic               0.000              0.000              0.000
 Translational            0.889              2.981             39.406
 Rotational               0.889              2.981             26.609
 Vibrational             91.901             22.423             17.237
 Vibration     1          0.614              1.918              2.864
 Vibration     2          0.640              1.833              2.092
 Vibration     3          0.652              1.796              1.884
 Vibration     4          0.667              1.749              1.674
 Vibration     5          0.672              1.733              1.613
 Vibration     6          0.681              1.707              1.521
 Vibration     7          0.725              1.581              1.178
 Vibration     8          0.741              1.536              1.084
 Vibration     9          0.776              1.445              0.921
 Vibration    10          0.829              1.311              0.731
 Vibration    11          0.906              1.138              0.543

 Optimization completed.
    -- Stationary point found.
 Normal termination of Gaussian 16 at Sat Apr  2 13:08:00 2022.
