 Gaussian 16, Revision A.03,
 Gaussian 16:  ES64L-G16RevA.03 25-Dec-2016

 --------------------------------------------
 #p UHF/def2SVP guess=mix stable=opt Pop=NOAB
 --------------------------------------------

 ---------
 C7H14 UHF
 ---------
 Symbolic Z-matrix:
 Charge =  0 Multiplicity = 1

                         Standard orientation:
 ---------------------------------------------------------------------
 Center     Atomic      Atomic             Coordinates (Angstroms)
 Number     Number       Type             X           Y           Z
 ---------------------------------------------------------------------
      1          6           0       -3.718495    0.068095    0.172328
      2          6           0       -2.362236    0.532389   -0.271773
      3          1           0       -4.243919   -0.701737   -0.381531
      4          1           0       -4.073806    0.287740    1.172805
      5          6           0       -1.218777   -0.387295    0.185266
      6          1           0       -2.341708    0.606280   -1.363857
      7          1           0       -2.178886    1.541548    0.110841
      8          6           0        0.158086    0.092884   -0.271342
      9          1           0       -1.235006   -0.463614    1.277864
     10          1           0       -1.398649   -1.398898   -0.194488
     11          1           0        0.170157    0.168299   -1.365091
     12          1           0        0.329379    1.105804    0.106893
     13          6           0        1.295459   -0.822620    0.180281
     14          1           0        1.110077   -1.835581   -0.192395
     15          1           0        1.294641   -0.892999    1.273701
     16          6           0        2.690127   -0.377905   -0.293335
     17          1           0        3.406152   -1.161102   -0.022187
     18          1           0        2.695775   -0.320271   -1.385917
     19          6           0        3.154723    0.929205    0.282341
     20          1           0        3.083446    1.853119   -0.278101
     21          1           0        3.389026    1.002893    1.338871
 ---------------------------------------------------------------------

 SCF Done:  E(UHF) =  -272.945034215     A.U. after   16 cycles

 Mulliken charges and spin densities:
               1          2
     1  C   -0.102219  -1.288020
     2  C   -0.046802   0.188038
     3  H    0.053231   0.093175
     4  H    0.053330   0.093182
     5  C   -0.062873  -0.050312
     6  H    0.030964  -0.016888
     7  H    0.031223  -0.016680
     8  C   -0.060075  -0.006775
     9  H    0.022537   0.001932
    10  H    0.022049   0.002130
    11  H    0.018389   0.001076
    12  H    0.025662   0.001537
    13  C   -0.052623   0.048701
    14  H    0.024172   0.002701
    15  H    0.021875  -0.002673
    16  C   -0.032677  -0.184445
    17  H    0.037785   0.029727
    18  H    0.029814   0.009373
    19  C   -0.123288   1.284095
    20  H    0.057646  -0.095779
    21  H    0.051881  -0.094097
 Sum of Mulliken charges =  -0.00000   0.00000

 Dipole moment (field-independent basis, Debye):
    X=              0.0719    Y=             -0.2183    Z=              0.0421  Tot=              0.2336
 Quadrupole moment (field-independent basis, Debye-Ang):
   XX=            -51.9022   YY=            -47.6328   ZZ=            -46.4051
   XY=              0.4435   XZ=             -0.0050   YZ=              0.6118

 Normal termination of Gaussian 16 at Sun May 15 23:46:45 2022.
