                         Program Version 5.0.0 -  RELEASE  -
|  1> ! RHF MP2 cc-pVTZ pal8
|  2> ! NoFrozenCore
|  3>
|  4> *xyz 0 1
|  5>   C   -2.58160084178652      0.85828318402722      0.00080156853200
|  6>   C   -1.19423075211164      0.86536269424988      0.00098054343823
|  7>   C   -0.48184821662044      2.06241189554032      0.00026969425476
|  8>   C   -1.19416423453283      3.25950055784776     -0.00062846767782
|  9>   C   -2.58153392669185      3.26665691565461     -0.00081697160061
| 10>   C   -3.26678503079028      2.06248916662553      0.00011048883372
| 11>   H   -3.12770213250513     -0.07395399173453      0.00130680306569
| 12>   H   -0.65977525765669     -0.07535746059244      0.00163025822144
| 13>   H   -0.65965646486742      4.20019103552288     -0.00124317258025
| 14>   H   -3.12758341376550      4.19892427265791     -0.00156478051965
| 15>   C   1.01725661812022      2.06237059889130      0.00078164411047
| 16>   C   1.72979440054537      2.06154569389869     -1.19627740111421
| 17>   C   1.72939598080617      2.06315592590829      1.19791401450705
| 18>   C   3.11712542600413      2.06150240870885     -1.20321779640295
| 19>   H   1.19530943085168      2.06092784488391     -2.13697707431363
| 20>   C   3.11678391264014      2.06312227056329      1.20519298930278
| 21>   H   1.19468583944535      2.06380338066680      2.13849130201270
| 22>   C   3.80213032469577      2.06229337795585      0.00112229842861
| 23>   H   3.66351142389813      2.06086028564820     -2.13528741294019
| 24>   H   3.66287659702490      2.06373408667386      2.13743659617327
| 25>   Cl  -5.00747133311841      2.06253716373157     -0.00043793949156
| 26>   Cl  5.54284890041484      2.06224511267023      0.00136880576014
| 27> *
| 28>
| 29>                          ****END OF INPUT****

CARTESIAN COORDINATES (ANGSTROEM)
---------------------------------
  C     -2.581601    0.858283    0.000802
  C     -1.194231    0.865363    0.000981
  C     -0.481848    2.062412    0.000270
  C     -1.194164    3.259501   -0.000628
  C     -2.581534    3.266657   -0.000817
  C     -3.266785    2.062489    0.000110
  H     -3.127702   -0.073954    0.001307
  H     -0.659775   -0.075357    0.001630
  H     -0.659656    4.200191   -0.001243
  H     -3.127583    4.198924   -0.001565
  C      1.017257    2.062371    0.000782
  C      1.729794    2.061546   -1.196277
  C      1.729396    2.063156    1.197914
  C      3.117125    2.061502   -1.203218
  H      1.195309    2.060928   -2.136977
  C      3.116784    2.063122    1.205193
  H      1.194686    2.063803    2.138491
  C      3.802130    2.062293    0.001122
  H      3.663511    2.060860   -2.135287
  H      3.662877    2.063734    2.137437
  Cl    -5.007471    2.062537   -0.000438
  Cl     5.542849    2.062245    0.001369

 Total Charge           Charge          ....    0
 Multiplicity           Mult            ....    1
 Number of Electrons    NEL             ....  114
 Basis Dimension        Dim             ....  540

ORBITAL ENERGIES
----------------

  NO   OCC          E(Eh)            E(eV)
   0   2.0000    -104.841733     -2852.8886
   1   2.0000    -104.841729     -2852.8885
   2   2.0000     -11.306460      -307.6644
   3   2.0000     -11.306456      -307.6643
   4   2.0000     -11.259883      -306.3970
   5   2.0000     -11.259205      -306.3785
   6   2.0000     -11.253238      -306.2162
   7   2.0000     -11.253237      -306.2161
   8   2.0000     -11.253182      -306.2146
   9   2.0000     -11.253180      -306.2146
  10   2.0000     -11.251492      -306.1687
  11   2.0000     -11.251489      -306.1686
  12   2.0000     -11.251415      -306.1666
  13   2.0000     -11.251405      -306.1663
  14   2.0000     -10.566774      -287.5365
  15   2.0000     -10.566770      -287.5364
  16   2.0000      -8.033664      -218.6071
  17   2.0000      -8.033660      -218.6070
  18   2.0000      -8.031767      -218.5555
  19   2.0000      -8.031763      -218.5554
  20   2.0000      -8.031742      -218.5548
  21   2.0000      -8.031738      -218.5547
  22   2.0000      -1.204467       -32.7752
  23   2.0000      -1.193658       -32.4811
  24   2.0000      -1.143432       -31.1144
  25   2.0000      -1.113939       -30.3118
  26   2.0000      -1.038302       -28.2536
  27   2.0000      -1.038298       -28.2535
  28   2.0000      -1.035164       -28.1682
  29   2.0000      -0.972877       -26.4733
  30   2.0000      -0.854585       -23.2544
  31   2.0000      -0.854575       -23.2542
  32   2.0000      -0.845253       -23.0005
  33   2.0000      -0.801287       -21.8041
  34   2.0000      -0.728847       -19.8329
  35   2.0000      -0.674585       -18.3564
  36   2.0000      -0.661385       -17.9972
  37   2.0000      -0.661384       -17.9972
  38   2.0000      -0.652486       -17.7551
  39   2.0000      -0.639106       -17.3910
  40   2.0000      -0.607372       -16.5274
  41   2.0000      -0.607364       -16.5272
  42   2.0000      -0.587431       -15.9848
  43   2.0000      -0.550627       -14.9833
  44   2.0000      -0.550625       -14.9833
  45   2.0000      -0.540757       -14.7147
  46   2.0000      -0.522314       -14.2129
  47   2.0000      -0.522305       -14.2126
  48   2.0000      -0.500039       -13.6067
  49   2.0000      -0.471611       -12.8332
  50   2.0000      -0.471608       -12.8331
  51   2.0000      -0.457596       -12.4518
  52   2.0000      -0.457595       -12.4518
  53   2.0000      -0.362174        -9.8553
  54   2.0000      -0.354141        -9.6367
  55   2.0000      -0.339816        -9.2469
  56   2.0000      -0.339812        -9.2468
  57   0.0000       0.092355         2.5131
  58   0.0000       0.112153         3.0519
  59   0.0000       0.112154         3.0519
  60   0.0000       0.126734         3.4486
  61   0.0000       0.136549         3.7157

MULLIKEN ATOMIC CHARGES
-----------------------
   0 C :   -0.170367
   1 C :   -0.126705
   2 C :   -0.028022
   3 C :   -0.126705
   4 C :   -0.170367
   5 C :    0.109168
   6 H :    0.172147
   7 H :    0.163029
   8 H :    0.163029
   9 H :    0.172147
  10 C :   -0.027991
  11 C :   -0.126717
  12 C :   -0.126712
  13 C :   -0.170374
  14 H :    0.163032
  15 C :   -0.170372
  16 H :    0.163030
  17 C :    0.109187
  18 H :    0.172153
  19 H :    0.172147
  20 Cl:   -0.157356
  21 Cl:   -0.157378
Sum of atomic charges:   -0.0000000

LOEWDIN ATOMIC CHARGES
----------------------
   0 C :    0.015273
   1 C :    0.048154
   2 C :   -0.039118
   3 C :    0.048154
   4 C :    0.015273
   5 C :   -0.288304
   6 H :   -0.020591
   7 H :   -0.018266
   8 H :   -0.018266
   9 H :   -0.020591
  10 C :   -0.039100
  11 C :    0.048168
  12 C :    0.048142
  13 C :    0.015267
  14 H :   -0.018272
  15 C :    0.015268
  16 H :   -0.018264
  17 C :   -0.288270
  18 H :   -0.020592
  19 H :   -0.020590
  20 Cl:    0.278280
  21 Cl:    0.278245

  Mayer bond orders larger than 0.100000
B(  0-C ,  1-C ) :   1.3618 B(  0-C ,  5-C ) :   1.3491 B(  0-C ,  6-H ) :   0.9668
B(  1-C ,  2-C ) :   1.3687 B(  1-C ,  7-H ) :   0.9690 B(  2-C ,  3-C ) :   1.3687
B(  2-C , 10-C ) :   1.0323 B(  3-C ,  4-C ) :   1.3618 B(  3-C ,  8-H ) :   0.9690
B(  4-C ,  5-C ) :   1.3491 B(  4-C ,  9-H ) :   0.9668 B(  5-C , 20-Cl) :   1.0206
B( 10-C , 11-C ) :   1.3685 B( 10-C , 12-C ) :   1.3688 B( 11-C , 13-C ) :   1.3620
B( 11-C , 14-H ) :   0.9690 B( 12-C , 15-C ) :   1.3617 B( 12-C , 16-H ) :   0.9690
B( 13-C , 17-C ) :   1.3490 B( 13-C , 18-H ) :   0.9668 B( 15-C , 17-C ) :   1.3492
B( 15-C , 19-H ) :   0.9668 B( 17-C , 21-Cl) :   1.0206

MP2 TOTAL ENERGY:    -1380.777966395 Eh
FINAL SINGLE POINT ENERGY     -1380.777966394588

DIPOLE MOMENT
-------------
                                X             Y             Z
Electronic contribution:     -0.00020      -0.00000       0.00009
Nuclear contribution   :      0.00013       0.00000      -0.00010
                        -----------------------------------------
Total Dipole Moment    :     -0.00007      -0.00000      -0.00002
                        -----------------------------------------
Magnitude (a.u.)       :      0.00007
Magnitude (Debye)      :      0.00018

Rotational constants in cm-1:     0.096140     0.005779     0.005779
Rotational constants in MHz :  2882.207816   173.250355   173.250260

                             ****ORCA TERMINATED NORMALLY****
TOTAL RUN TIME: 0 days 0 hours 5 minutes 18 seconds 194 msec
