 Gaussian 16, Revision A.03,
 Gaussian 16:  ES64L-G16RevA.03 25-Dec-2016

 ------------------------------------------
 #p UHF/cc-pVDZ nosymm guess=mix stable=opt
 ------------------------------------------

 -----
 O2 SP
 -----
 Symbolic Z-matrix:
 Charge =  0 Multiplicity = 1

                          Input orientation:
 ---------------------------------------------------------------------
 Center     Atomic      Atomic             Coordinates (Angstroms)
 Number     Number       Type             X           Y           Z
 ---------------------------------------------------------------------
      1          8           0        0.000000    0.000000    0.000000
      2          8           0        0.000000    0.000000    1.250000
 ---------------------------------------------------------------------

 SCF Done:  E(UHF) =  -149.589478746     A.U. after    9 cycles
 SCF Done:  E(UHF) =  -149.596725194     a.u. after    5 cycles

 Alpha  occ. eigenvalues --  -20.73159 -20.70436  -1.61805  -1.10503  -0.80167
 Alpha  occ. eigenvalues --   -0.70941  -0.61354  -0.52039
 Alpha virt. eigenvalues --    0.10281   0.41503   1.06412   1.07461   1.15321
 Alpha virt. eigenvalues --    1.17981   1.18363   1.28885   1.34427   1.94832
 Alpha virt. eigenvalues --    2.38436   2.44483   2.70493   2.70741   2.99439

  Beta  occ. eigenvalues --  -20.73159 -20.70436  -1.61805  -1.10503  -0.80167
  Beta  occ. eigenvalues --   -0.70941  -0.61354  -0.52039
  Beta virt. eigenvalues --    0.10281   0.41503   1.06412   1.07461   1.15321
  Beta virt. eigenvalues --    1.17981   1.18363   1.28885   1.34427   1.94832
  Beta virt. eigenvalues --    2.38436   2.44483   2.70493   2.70741   2.99439

 Mulliken charges and spin densities:
               1          2
     1  O    0.000000   0.696008
     2  O    0.000000  -0.696008
 Sum of Mulliken charges =   0.00000   0.00000

 Dipole moment (field-independent basis, Debye):
    X=             -0.0000    Y=             -0.0000    Z=              0.0000  Tot=              0.0000
 Quadrupole moment (field-independent basis, Debye-Ang):
   XX=             -9.8671   YY=             -9.8671   ZZ=            -10.5568
   XY=             -0.0000   XZ=              0.0000   YZ=             -0.0000

 Normal termination of Gaussian 16 at Sat Apr  2 12:37:48 2022.
