                         Program Version 5.0.0 -  RELEASE  -
|  1> ! RHF MP2 cc-pVQZ pal8
|  2>
|  3> *xyz 0 1
|  4>   C   -2.58160084178652      0.85828318402722      0.00080156853200
|  5>   C   -1.19423075211164      0.86536269424988      0.00098054343823
|  6>   C   -0.48184821662044      2.06241189554032      0.00026969425476
|  7>   C   -1.19416423453283      3.25950055784776     -0.00062846767782
|  8>   C   -2.58153392669185      3.26665691565461     -0.00081697160061
|  9>   C   -3.26678503079028      2.06248916662553      0.00011048883372
| 10>   H   -3.12770213250513     -0.07395399173453      0.00130680306569
| 11>   H   -0.65977525765669     -0.07535746059244      0.00163025822144
| 12>   H   -0.65965646486742      4.20019103552288     -0.00124317258025
| 13>   H   -3.12758341376550      4.19892427265791     -0.00156478051965
| 14>   C   1.01725661812022      2.06237059889130      0.00078164411047
| 15>   C   1.72979440054537      2.06154569389869     -1.19627740111421
| 16>   C   1.72939598080617      2.06315592590829      1.19791401450705
| 17>   C   3.11712542600413      2.06150240870885     -1.20321779640295
| 18>   H   1.19530943085168      2.06092784488391     -2.13697707431363
| 19>   C   3.11678391264014      2.06312227056329      1.20519298930278
| 20>   H   1.19468583944535      2.06380338066680      2.13849130201270
| 21>   C   3.80213032469577      2.06229337795585      0.00112229842861
| 22>   H   3.66351142389813      2.06086028564820     -2.13528741294019
| 23>   H   3.66287659702490      2.06373408667386      2.13743659617327
| 24>   Cl  -5.00747133311841      2.06253716373157     -0.00043793949156
| 25>   Cl  5.54284890041484      2.06224511267023      0.00136880576014
| 26> **                         ****END OF INPUT****

CARTESIAN COORDINATES (ANGSTROEM)
---------------------------------
  C     -2.581601    0.858283    0.000802
  C     -1.194231    0.865363    0.000981
  C     -0.481848    2.062412    0.000270
  C     -1.194164    3.259501   -0.000628
  C     -2.581534    3.266657   -0.000817
  C     -3.266785    2.062489    0.000110
  H     -3.127702   -0.073954    0.001307
  H     -0.659775   -0.075357    0.001630
  H     -0.659656    4.200191   -0.001243
  H     -3.127583    4.198924   -0.001565
  C      1.017257    2.062371    0.000782
  C      1.729794    2.061546   -1.196277
  C      1.729396    2.063156    1.197914
  C      3.117125    2.061502   -1.203218
  H      1.195309    2.060928   -2.136977
  C      3.116784    2.063122    1.205193
  H      1.194686    2.063803    2.138491
  C      3.802130    2.062293    0.001122
  H      3.663511    2.060860   -2.135287
  H      3.662877    2.063734    2.137437
  Cl    -5.007471    2.062537   -0.000438
  Cl     5.542849    2.062245    0.001369

 Total Charge           Charge          ....    0
 Multiplicity           Mult            ....    1
 Number of Electrons    NEL             ....  114
 Basis Dimension        Dim             .... 1018

ORBITAL ENERGIES
----------------

  NO   OCC          E(Eh)            E(eV)
   0   2.0000    -104.841865     -2852.8922
   1   2.0000    -104.841861     -2852.8921
   2   2.0000     -11.305646      -307.6423
   3   2.0000     -11.305642      -307.6422
   4   2.0000     -11.259444      -306.3851
   5   2.0000     -11.258764      -306.3665
   6   2.0000     -11.252974      -306.2090
   7   2.0000     -11.252973      -306.2090
   8   2.0000     -11.252918      -306.2075
   9   2.0000     -11.252916      -306.2074
  10   2.0000     -11.251224      -306.1614
  11   2.0000     -11.251221      -306.1613
  12   2.0000     -11.251145      -306.1592
  13   2.0000     -11.251135      -306.1589
  14   2.0000     -10.567408      -287.5538
  15   2.0000     -10.567404      -287.5537
  16   2.0000      -8.034547      -218.6311
  17   2.0000      -8.034543      -218.6310
  18   2.0000      -8.032806      -218.5838
  19   2.0000      -8.032802      -218.5837
  20   2.0000      -8.032753      -218.5823
  21   2.0000      -8.032749      -218.5822
  22   2.0000      -1.204863       -32.7860
  23   2.0000      -1.194032       -32.4913
  24   2.0000      -1.143821       -31.1250
  25   2.0000      -1.114409       -30.3246
  26   2.0000      -1.038746       -28.2657
  27   2.0000      -1.038743       -28.2656
  28   2.0000      -1.035640       -28.1812
  29   2.0000      -0.973354       -26.4863
  30   2.0000      -0.855094       -23.2683
  31   2.0000      -0.855084       -23.2680
  32   2.0000      -0.845797       -23.0153
  33   2.0000      -0.801882       -21.8203
  34   2.0000      -0.729577       -19.8528
  35   2.0000      -0.675397       -18.3785
  36   2.0000      -0.662118       -18.0171
  37   2.0000      -0.662117       -18.0171
  38   2.0000      -0.653139       -17.7728
  39   2.0000      -0.639748       -17.4084
  40   2.0000      -0.608080       -16.5467
  41   2.0000      -0.608072       -16.5465
  42   2.0000      -0.588295       -16.0083
  43   2.0000      -0.551386       -15.0040
  44   2.0000      -0.551384       -15.0039
  45   2.0000      -0.541635       -14.7386
  46   2.0000      -0.523011       -14.2318
  47   2.0000      -0.523002       -14.2316
  48   2.0000      -0.500850       -13.6288
  49   2.0000      -0.472334       -12.8529
  50   2.0000      -0.472330       -12.8528
  51   2.0000      -0.458335       -12.4719
  52   2.0000      -0.458335       -12.4719
  53   2.0000      -0.362803        -9.8724
  54   2.0000      -0.354706        -9.6520
  55   2.0000      -0.340583        -9.2677
  56   2.0000      -0.340580        -9.2677
  57   0.0000       0.087354         2.3770
  58   0.0000       0.107764         2.9324
  59   0.0000       0.107766         2.9325
  60   0.0000       0.108129         2.9423
  61   0.0000       0.121844         3.3155

MULLIKEN ATOMIC CHARGES
-----------------------
   0 C :   -0.073481
   1 C :   -0.130571
   2 C :   -0.070657
   3 C :   -0.130573
   4 C :   -0.073480
   5 C :   -0.070653
   6 H :    0.172031
   7 H :    0.158727
   8 H :    0.158727
   9 H :    0.172031
  10 C :   -0.070676
  11 C :   -0.130597
  12 C :   -0.130529
  13 C :   -0.073472
  14 H :    0.158738
  15 C :   -0.073452
  16 H :    0.158726
  17 C :   -0.070703
  18 H :    0.172053
  19 H :    0.172033
  20 Cl:   -0.112095
  21 Cl:   -0.112127
Sum of atomic charges:    0.0000000

LOEWDIN ATOMIC CHARGES
----------------------
   0 C :    0.078036
   1 C :    0.124897
   2 C :   -0.065805
   3 C :    0.124897
   4 C :    0.078036
   5 C :   -0.436470
   6 H :   -0.088448
   7 H :   -0.082849
   8 H :   -0.082849
   9 H :   -0.088448
  10 C :   -0.065784
  11 C :    0.124918
  12 C :    0.124886
  13 C :    0.078031
  14 H :   -0.082857
  15 C :    0.078031
  16 H :   -0.082848
  17 C :   -0.436434
  18 H :   -0.088450
  19 H :   -0.088448
  20 Cl:    0.438998
  21 Cl:    0.438959

  Mayer bond orders larger than 0.100000
B(  0-C ,  1-C ) :   1.3787 B(  0-C ,  5-C ) :   1.3342 B(  0-C ,  6-H ) :   0.9762
B(  1-C ,  2-C ) :   1.3653 B(  1-C ,  7-H ) :   0.9808 B(  2-C ,  3-C ) :   1.3653
B(  2-C , 10-C ) :   1.0928 B(  3-C ,  4-C ) :   1.3787 B(  3-C ,  8-H ) :   0.9808
B(  4-C ,  5-C ) :   1.3342 B(  4-C ,  9-H ) :   0.9762 B(  5-C , 20-Cl) :   1.1103
B( 10-C , 11-C ) :   1.3651 B( 10-C , 12-C ) :   1.3654 B( 11-C , 13-C ) :   1.3789
B( 11-C , 14-H ) :   0.9808 B( 12-C , 15-C ) :   1.3786 B( 12-C , 16-H ) :   0.9808
B( 13-C , 17-C ) :   1.3341 B( 13-C , 18-H ) :   0.9762 B( 15-C , 17-C ) :   1.3343
B( 15-C , 19-H ) :   0.9762 B( 17-C , 21-Cl) :   1.1103

MP2 TOTAL ENERGY:    -1380.711271099 Eh
FINAL SINGLE POINT ENERGY     -1380.711271099012

DIPOLE MOMENT
-------------
                                X             Y             Z
Electronic contribution:     -0.00020      -0.00000       0.00008
Nuclear contribution   :      0.00013       0.00000      -0.00010
                        -----------------------------------------
Total Dipole Moment    :     -0.00007      -0.00000      -0.00002
                        -----------------------------------------
Magnitude (a.u.)       :      0.00007
Magnitude (Debye)      :      0.00018

Rotational constants in cm-1:     0.096140     0.005779     0.005779
Rotational constants in MHz :  2882.207816   173.250355   173.250260

                             ****ORCA TERMINATED NORMALLY****
TOTAL RUN TIME: 0 days 0 hours 40 minutes 56 seconds 87 msec
