 Gaussian 16, Revision A.03,
 Gaussian 16:  ES64L-G16RevA.03 25-Dec-2016

 -------------------------
 #p UHF/def2TZVP guess=mix
 -------------------------

 ------------
 [Fe(H2O)6]2+
 ------------
 Symbolic Z-matrix:
 Charge =  2 Multiplicity = 5

                         Standard orientation:
 ---------------------------------------------------------------------
 Center     Atomic      Atomic             Coordinates (Angstroms)
 Number     Number       Type             X           Y           Z
 ---------------------------------------------------------------------
      1         26           0        0.000065    0.000163   -0.000017
      2          8           0       -1.246719   -1.256779    0.948755
      3          1           0       -1.906773   -1.728539    0.406440
      4          8           0        1.248166    0.192856    1.561816
      5          1           0        0.978517    0.504619    2.444641
      6          8           0       -1.248574   -0.193244   -1.561244
      7          1           0       -0.979714   -0.505995   -2.443958
      8          8           0        1.247144    1.256732   -0.948912
      9          1           0        1.906411    1.729332   -0.406365
     10          8           0       -1.247341    1.449656    0.614407
     11          1           0       -1.905699    1.215874    1.295786
     12          8           0        1.247217   -1.449530   -0.614705
     13          1           0        1.906902   -1.215343   -1.294651
     14          1           0       -0.977458    2.370268    0.784533
     15          1           0        1.907641   -0.513331    1.698765
     16          1           0        0.977196   -2.369840   -0.786194
     17          1           0       -0.975734   -1.865439    1.659658
     18          1           0       -1.908858    0.512144   -1.698350
     19          1           0        0.976718    1.864477   -1.660803
 ---------------------------------------------------------------------

 SCF Done:  E(UHF) =  -1718.41717365     A.U. after   98 cycles

 The electronic state is 5-A.
 Alpha  occ. eigenvalues -- -261.58658 -32.20843 -27.69916 -27.69907 -27.66546
 Alpha  occ. eigenvalues --  -20.90932 -20.90932 -20.90931 -20.90931 -20.90930
 Alpha  occ. eigenvalues --  -20.90930  -4.57605  -3.21879  -3.21859  -3.14689
 Alpha  occ. eigenvalues --   -1.71283  -1.70159  -1.69734  -1.69733  -1.69587
 Alpha  occ. eigenvalues --   -1.69586  -1.07617  -1.06886  -1.06883  -1.06863
 Alpha  occ. eigenvalues --   -1.06139  -1.06136  -1.04842  -1.04840  -1.01895
 Alpha  occ. eigenvalues --   -0.97117  -0.95993  -0.95992  -0.95280  -0.95278
 Alpha  occ. eigenvalues --   -0.89034  -0.87503  -0.87501  -0.86534  -0.86532
 Alpha  occ. eigenvalues --   -0.85677  -0.82978  -0.79489  -0.79486
 Alpha virt. eigenvalues --   -0.20015  -0.14919  -0.14918  -0.13582  -0.10690
 Alpha virt. eigenvalues --   -0.10689  -0.07116  -0.07115  -0.06938  -0.06754
 Alpha virt. eigenvalues --   -0.05414  -0.05414   0.04286   0.09081   0.09125

  Beta  occ. eigenvalues -- -261.58385 -32.08220 -27.56388 -27.56388 -27.56235
  Beta  occ. eigenvalues --  -20.90743 -20.90742 -20.90742 -20.90742 -20.90741
  Beta  occ. eigenvalues --  -20.90740  -4.21980  -2.79896  -2.74924  -2.74911
  Beta  occ. eigenvalues --   -1.70853  -1.69712  -1.69278  -1.69277  -1.69073
  Beta  occ. eigenvalues --   -1.69073  -1.07222  -1.06661  -1.06002  -1.05999
  Beta  occ. eigenvalues --   -1.05936  -1.05933  -1.00916  -0.96338  -0.95171
  Beta  occ. eigenvalues --   -0.95170  -0.95069  -0.95068  -0.86927  -0.86925
  Beta  occ. eigenvalues --   -0.86892  -0.86891  -0.86731  -0.85033  -0.69741
  Beta virt. eigenvalues --   -0.19909  -0.14843  -0.14842  -0.13532  -0.11186
  Beta virt. eigenvalues --   -0.11185  -0.07362  -0.07362  -0.06829  -0.06683
  Beta virt. eigenvalues --   -0.05315  -0.05315  -0.01701  -0.01699   0.04499

 Mulliken charges and spin densities:
               1          2
     1  Fe   1.187365   3.912644
     2  O   -0.707734   0.012959
     3  H    0.425991   0.001141
     4  O   -0.707745   0.012965
     5  H    0.417243   0.000461
     6  O   -0.707885   0.012960
     7  H    0.417248   0.000462
     8  O   -0.707799   0.012952
     9  H    0.425990   0.001144
    10  O   -0.707738   0.012945
    11  H    0.425961   0.001147
    12  O   -0.707835   0.012946
    13  H    0.425996   0.001142
    14  H    0.417233   0.000463
    15  H    0.425976   0.001138
    16  H    0.417233   0.000465
    17  H    0.417229   0.000462
    18  H    0.426013   0.001142
    19  H    0.417256   0.000462
 Sum of Mulliken charges =   2.00000   4.00000

 Dipole moment (field-independent basis, Debye):
    X=             -0.0010    Y=             -0.0011    Z=             -0.0018  Tot=              0.0023
 Quadrupole moment (field-independent basis, Debye-Ang):
   XX=            -23.7131   YY=            -15.7711   ZZ=            -15.7800
   XY=             -0.0007   XZ=              0.0118   YZ=              0.0050

 Normal termination of Gaussian 16 at Sun May 15 10:07:21 2022.
