 Gaussian 16, Revision A.03,
 Gaussian 16:  ES64L-G16RevA.03 25-Dec-2016

 -------------------------
 #p UHF/def2TZVP guess=mix
 -------------------------

 ------------
 [Fe(H2O)6]2+
 ------------
 Symbolic Z-matrix:
 Charge =  2 Multiplicity = 3

                         Standard orientation:
 ---------------------------------------------------------------------
 Center     Atomic      Atomic             Coordinates (Angstroms)
 Number     Number       Type             X           Y           Z
 ---------------------------------------------------------------------
      1         26           0        0.000065    0.000163   -0.000017
      2          8           0       -1.246719   -1.256779    0.948755
      3          1           0       -1.906773   -1.728539    0.406440
      4          8           0        1.248166    0.192856    1.561816
      5          1           0        0.978517    0.504619    2.444641
      6          8           0       -1.248574   -0.193244   -1.561244
      7          1           0       -0.979714   -0.505995   -2.443958
      8          8           0        1.247144    1.256732   -0.948912
      9          1           0        1.906411    1.729332   -0.406365
     10          8           0       -1.247341    1.449656    0.614407
     11          1           0       -1.905699    1.215874    1.295786
     12          8           0        1.247217   -1.449530   -0.614705
     13          1           0        1.906902   -1.215343   -1.294651
     14          1           0       -0.977458    2.370268    0.784533
     15          1           0        1.907641   -0.513331    1.698765
     16          1           0        0.977196   -2.369840   -0.786194
     17          1           0       -0.975734   -1.865439    1.659658
     18          1           0       -1.908858    0.512144   -1.698350
     19          1           0        0.976718    1.864477   -1.660803
 ---------------------------------------------------------------------

 SCF Done:  E(UHF) =  -1718.33954622     A.U. after  116 cycles

 The electronic state is 3-A.
 Alpha  occ. eigenvalues -- -261.60923 -32.20158 -27.69191 -27.69061 -27.66173
 Alpha  occ. eigenvalues --  -20.91393 -20.91391 -20.90995 -20.90994 -20.90769
 Alpha  occ. eigenvalues --  -20.90768  -4.49718  -3.13932  -3.13686  -3.01339
 Alpha  occ. eigenvalues --   -1.71134  -1.70032  -1.69628  -1.69508  -1.69441
 Alpha  occ. eigenvalues --   -1.69348  -1.07616  -1.06867  -1.06671  -1.06484
 Alpha  occ. eigenvalues --   -1.06144  -1.05990  -1.02932  -1.01477  -0.96856
 Alpha  occ. eigenvalues --   -0.96107  -0.95644  -0.95458  -0.92023  -0.90070
 Alpha  occ. eigenvalues --   -0.88895  -0.87370  -0.87271  -0.85475  -0.84694
 Alpha  occ. eigenvalues --   -0.82979  -0.82879  -0.77238
 Alpha virt. eigenvalues --   -0.19906  -0.14882  -0.14816  -0.13566  -0.11693
 Alpha virt. eigenvalues --   -0.10617  -0.07103  -0.07081  -0.06910  -0.06734
 Alpha virt. eigenvalues --   -0.05389  -0.05338  -0.01388   0.04358   0.09365

  Beta  occ. eigenvalues -- -261.60782 -32.13768 -27.64293 -27.60634 -27.60579
  Beta  occ. eigenvalues --  -20.91434 -20.91432 -20.90823 -20.90822 -20.90645
  Beta  occ. eigenvalues --  -20.90644  -4.31819  -2.96685  -2.83783  -2.83757
  Beta  occ. eigenvalues --   -1.70975  -1.69970  -1.69402  -1.69307  -1.69190
  Beta  occ. eigenvalues --   -1.68988  -1.07394  -1.06802  -1.06370  -1.06079
  Beta  occ. eigenvalues --   -1.05942  -1.05832  -1.01049  -0.96555  -0.95680
  Beta  occ. eigenvalues --   -0.95292  -0.95179  -0.94959  -0.88412  -0.87559
  Beta  occ. eigenvalues --   -0.87279  -0.86862  -0.86608  -0.85155  -0.76694
  Beta  occ. eigenvalues --   -0.76422
  Beta virt. eigenvalues --   -0.19857  -0.14864  -0.14767  -0.13538  -0.11303
  Beta virt. eigenvalues --   -0.11185  -0.07397  -0.07104  -0.06911  -0.06691
  Beta virt. eigenvalues --   -0.05363  -0.05273  -0.02579   0.04524   0.05635

 Mulliken charges and spin densities:
               1          2
     1  Fe   1.130256   1.963098
     2  O   -0.689518  -0.006277
     3  H    0.426171  -0.000272
     4  O   -0.704861   0.007936
     5  H    0.417729   0.001547
     6  O   -0.705007   0.007934
     7  H    0.417734   0.001550
     8  O   -0.689579  -0.006275
     9  H    0.426169  -0.000272
    10  O   -0.702179   0.013514
    11  H    0.424510  -0.000544
    12  O   -0.702279   0.013510
    13  H    0.424544  -0.000549
    14  H    0.417812   0.000693
    15  H    0.425528   0.002200
    16  H    0.417815   0.000697
    17  H    0.419782  -0.000347
    18  H    0.425567   0.002204
    19  H    0.419807  -0.000348
 Sum of Mulliken charges =   2.00000   2.00000

 Dipole moment (field-independent basis, Debye):
    X=             -0.0011    Y=             -0.0013    Z=             -0.0018  Tot=              0.0025
 Quadrupole moment (field-independent basis, Debye-Ang):
   XX=            -23.2995   YY=            -15.3687   ZZ=            -15.6024
   XY=              0.1921   XZ=             -0.1894   YZ=             -0.2093

 Normal termination of Gaussian 16 at Sun May 15 09:45:08 2022.
