 Gaussian 16, Revision A.03,
 Gaussian 16:  ES64L-G16RevA.03 25-Dec-2016

 ---------------
 #p BLYP/cc-pVTZ
 ---------------

 --------------------------------------
 3,8-dicl-dibenzene SP RKS BLYP cc-pVTZ
 --------------------------------------
 Symbolic Z-matrix:
 Charge =  0 Multiplicity = 1

                         Standard orientation:
 ---------------------------------------------------------------------
 Center     Atomic      Atomic             Coordinates (Angstroms)
 Number     Number       Type             X           Y           Z
 ---------------------------------------------------------------------
      1          6           0        2.730812   -0.022491    1.452760
      2          6           0        1.349615   -0.011465    1.322312
      3          6           0        0.746550   -0.005826    0.066646
      4          6           0        1.562496   -0.011510   -1.062343
      5          6           0        2.944960   -0.022535   -0.946075
      6          6           0        3.520366   -0.028168    0.314268
      7          1           0        3.191814   -0.026765    2.429874
      8          1           0        0.733622   -0.007147    2.211768
      9          1           0        1.113794   -0.007226   -2.046846
     10          1           0        3.571749   -0.026843   -1.826081
     11          6           0       -0.746572    0.005775   -0.066648
     12          6           0       -1.446629    1.208552   -0.129164
     13          6           0       -1.465504   -1.185565   -0.130806
     14          6           0       -2.828364    1.226701   -0.252514
     15          1           0       -0.906707    2.144903   -0.080981
     16          6           0       -2.847410   -1.181634   -0.254171
     17          1           0       -0.940500   -2.130432   -0.083921
     18          6           0       -3.520327    0.027935   -0.314265
     19          1           0       -3.365065    2.163155   -0.300443
     20          1           0       -3.398825   -2.109435   -0.303380
     21         17           0        5.254105   -0.041683    0.469042
     22         17           0       -5.254096    0.041753   -0.469041
 ---------------------------------------------------------------------

 SCF Done:  E(RB-LYP) =  -1382.49046026     A.U. after   14 cycles

 The electronic state is 1-A.
 Alpha  occ. eigenvalues -- -100.76795-100.76795  -9.97423  -9.97422  -9.93285
 Alpha  occ. eigenvalues --   -9.93267  -9.92644  -9.92644  -9.92643  -9.92643
 Alpha  occ. eigenvalues --   -9.92545  -9.92545  -9.92544  -9.92544  -9.18382
 Alpha  occ. eigenvalues --   -9.18382  -7.01695  -7.01695  -7.00687  -7.00687
 Alpha  occ. eigenvalues --   -7.00626  -7.00626  -0.81772  -0.81275  -0.77702
 Alpha  occ. eigenvalues --   -0.75534  -0.69216  -0.68847  -0.68847  -0.64235
 Alpha  occ. eigenvalues --   -0.56286  -0.56285  -0.55682  -0.52763  -0.48521
 Alpha  occ. eigenvalues --   -0.44962  -0.42932  -0.42932  -0.42108  -0.40819
 Alpha  occ. eigenvalues --   -0.38814  -0.38813  -0.38696  -0.35711  -0.35711
 Alpha  occ. eigenvalues --   -0.35179  -0.32326  -0.32325  -0.31056  -0.29416
 Alpha  occ. eigenvalues --   -0.29416  -0.27098  -0.27098  -0.24377  -0.23849
 Alpha  occ. eigenvalues --   -0.21930  -0.21929
 Alpha virt. eigenvalues --   -0.06031  -0.04776  -0.04776  -0.04098  -0.00705
 Alpha virt. eigenvalues --   -0.00684   0.03897   0.04350   0.04691   0.04691
 Alpha virt. eigenvalues --    0.06612   0.07279   0.08926   0.08926   0.09321

 Mulliken charges:
               1
     1  C   -0.097233
     2  C   -0.083993
     3  C    0.018557
     4  C   -0.083945
     5  C   -0.097237
     6  C    0.073926
     7  H    0.101233
     8  H    0.091173
     9  H    0.091175
    10  H    0.101230
    11  C    0.018583
    12  C   -0.083950
    13  C   -0.083968
    14  C   -0.097254
    15  H    0.091159
    16  C   -0.097263
    17  H    0.091158
    18  C    0.074004
    19  H    0.101218
    20  H    0.101216
    21  Cl  -0.114884
    22  Cl  -0.114904
 Sum of Mulliken charges =  -0.00000

 Dipole moment (field-independent basis, Debye):
    X=              0.0002    Y=              0.0001    Z=              0.0000  Tot=              0.0002
 Quadrupole moment (field-independent basis, Debye-Ang):
   XX=           -110.5039   YY=            -91.7222   ZZ=            -91.8701
   XY=              0.1496   XZ=             -1.6768   YZ=              0.0134

 Normal termination of Gaussian 16 at Wed May  4 15:10:25 2022.
