                         Program Version 5.0.0 -  RELEASE  -
|  1> ! Opt def2-SVP pal8
|  2>
|  3> # CH2 OPT
|  4>
|  5> *xyz 0 3
|  6>  C                 -0.53333164    0.26468350    0.00000000
|  7>  H                 -0.08562166   -0.70714765    0.00000000
|  8>  H                 -1.59881709    0.36287086    0.00000000
|  9> *
| 10>
| 11>
| 12>                          ****END OF INPUT****
 Total Charge           Charge          ....    0
 Multiplicity           Mult            ....    3
 Number of Electrons    NEL             ....    8
FINAL SINGLE POINT ENERGY       -38.892094145307
FINAL SINGLE POINT ENERGY       -38.893791534077
FINAL SINGLE POINT ENERGY       -38.894506407773
FINAL SINGLE POINT ENERGY       -38.894565148052
FINAL SINGLE POINT ENERGY       -38.894566576127
                    ***********************HURRAY********************

CARTESIAN COORDINATES (ANGSTROEM)
---------------------------------
  C     -0.568280    0.215260    0.000000
  H     -0.020933   -0.715822    0.000000
  H     -1.628557    0.420969    0.000000

 Multiplicity           Mult            ....    3
 Number of Electrons    NEL             ....    8
 Basis Dimension        Dim             ....   24

ORBITAL ENERGIES
----------------
                 SPIN UP ORBITALS
  NO   OCC          E(Eh)            E(eV)
   0   1.0000     -11.270011      -306.6726
   1   1.0000      -0.936318       -25.4785
   2   1.0000      -0.614829       -16.7304
   3   1.0000      -0.455511       -12.3951
   4   1.0000      -0.411828       -11.2064
   5   0.0000       0.204888         5.5753
   6   0.0000       0.256613         6.9828
   7   0.0000       0.558801        15.2057
   8   0.0000       0.624820        17.0022
   9   0.0000       0.657459        17.8904

                 SPIN DOWN ORBITALS
  NO   OCC          E(Eh)            E(eV)
   0   1.0000     -11.218932      -305.2827
   1   1.0000      -0.767884       -20.8952
   2   1.0000      -0.582341       -15.8463
   3   0.0000       0.128856         3.5064
   4   0.0000       0.158120         4.3027
   5   0.0000       0.230085         6.2609
   6   0.0000       0.277528         7.5519
   7   0.0000       0.598653        16.2902

MULLIKEN ATOMIC CHARGES AND SPIN POPULATIONS
--------------------------------------------
   0 C :   -0.165569    2.218165
   1 H :    0.082785   -0.109083
   2 H :    0.082785   -0.109083
Sum of atomic charges         :   -0.0000000

LOEWDIN ATOMIC CHARGES AND SPIN POPULATIONS
-------------------------------------------
   0 C :   -0.012717    2.022121
   1 H :    0.006358   -0.011061
   2 H :    0.006358   -0.011061

  Mayer bond orders larger than 0.100000
B(  0-C ,  1-H ) :   0.9676 B(  0-C ,  2-H ) :   0.9676

FINAL SINGLE POINT ENERGY       -38.894566117288

DIPOLE MOMENT
-------------
                                X             Y             Z
Electronic contribution:      0.28223       0.39912      -0.00000
Nuclear contribution   :     -0.41206      -0.58272       0.00000
                        -----------------------------------------
Total Dipole Moment    :     -0.12983      -0.18360      -0.00000
                        -----------------------------------------
Magnitude (a.u.)       :      0.22487
Magnitude (Debye)      :      0.57157

Rotational constants in cm-1:    49.491373     8.627771     7.346981
Rotational constants in MHz : 1483714.044143 258654.059176 220256.936203

                             ****ORCA TERMINATED NORMALLY****
TOTAL RUN TIME: 0 days 0 hours 0 minutes 11 seconds 270 msec
