                         Program Version 5.0.0 -  RELEASE  -
|  1> ! cc-pvtz RIJK cc-pvtz/jk UseSym pal8
|  2> ! MOread
|  3>
|  4> %moinp  "ben-rhf.gbw"
|  5>
|  6> %scf
|  7>     rotate {18,16,90} {23,29,90} end
|  8> end
|  9>
| 10> %casscf
| 11>     nel     6
| 12>     norb    6
| 13>     irrep   0
| 14>     mult    1
| 15>     nroots  1
| 16> end
| 17>
| 18> *xyz 0 1
| 19>  C   1.21105763915345      0.69916522296351     -0.00000002423937
| 20>  C   0.00000000882288      1.39827374718112     -0.00000003476372
| 21>  C   -1.21105761456966      0.69916520818333      0.00000001202970
| 22>  C   -1.21105765944965     -0.69916521253772     -0.00000002028759
| 23>  C   -0.00000002924690     -1.39827375425198     -0.00000006510495
| 24>  C   1.21105759634142     -0.69916519566758     -0.00000001139166
| 25>  H   2.15727867932261      1.24550656935944      0.00000002108822
| 26>  H   -0.00000003268748      2.49090825711365     -0.00000007876766
| 27>  H   -2.15727859099377      1.24550663211660      0.00000011262075
| 28>  H   -2.15727863065228     -1.24550666379260      0.00000002492918
| 29>  H   -0.00000001076256     -2.49090826242235     -0.00000006787266
| 30>  H   2.15727864472193     -1.24550654824542      0.00000013175977
| 31> *
| 32>
| 33>
| 34>                          ****END OF INPUT****

CARTESIAN COORDINATES (ANGSTROEM)
---------------------------------
  C      1.211058    0.699165    0.000000
  C      0.000000    1.398274   -0.000000
  C     -1.211058    0.699165   -0.000000
  C     -1.211058   -0.699165    0.000000
  C      0.000000   -1.398274   -0.000000
  C      1.211058   -0.699165   -0.000000
  H      2.157279    1.245507    0.000000
  H     -0.000000    2.490908    0.000000
  H     -2.157279    1.245507   -0.000000
  H     -2.157279   -1.245507    0.000000
  H      0.000000   -2.490908    0.000000
  H      2.157279   -1.245507   -0.000000

 Total Charge           Charge          ....    0
 Multiplicity           Mult            ....    1
 Number of Electrons    NEL             ....   42
 Basis Dimension        Dim             ....  264

ORBITAL ENERGIES
----------------

  NO   OCC          E(Eh)            E(eV)    Irrep
   0   2.0000     -11.226111      -305.4780    1-Ag
   1   2.0000     -11.225555      -305.4629    1-B3u
   2   2.0000     -11.225555      -305.4629    1-B2u
   3   2.0000     -11.224354      -305.4302    2-Ag
   4   2.0000     -11.224353      -305.4302    1-B1g
   5   2.0000     -11.223762      -305.4141    2-B2u
   6   2.0000      -1.140000       -31.0210    3-Ag
   7   2.0000      -1.004874       -27.3440    2-B3u
   8   2.0000      -1.004847       -27.3433    3-B2u
   9   2.0000      -0.814528       -22.1644    2-B1g
  10   2.0000      -0.814526       -22.1644    4-Ag
  11   2.0000      -0.698876       -19.0174    5-Ag
  12   2.0000      -0.634728       -17.2718    4-B2u
  13   2.0000      -0.609380       -16.5821    3-B3u
  14   2.0000      -0.578710       -15.7475    4-B3u
  15   2.0000      -0.578670       -15.7464    5-B2u
  16   2.0000      -0.486277       -13.2323    3-B1g
  17   2.0000      -0.486253       -13.2316    6-Ag
  18   0.1000       0.166114         4.5202    1-B1u
  19   1.9014      -0.321397        -8.7457    1-B2g
  20   0.0366       0.422413        11.4944    1-B3g
  21   0.1000       0.166117         4.5203    1-Au
  22   1.9607      -0.488236       -13.2856    2-B1u
  23   1.9014      -0.321377        -8.7451    2-B3g
  24   0.0000       0.146675         3.9912    7-Ag
  25   0.0000       0.171369         4.6632    5-B3u
  26   0.0000       0.171373         4.6633    6-B2u
  27   0.0000       0.202625         5.5137    4-B1g
  28   0.0000       0.202627         5.5138    8-Ag

MULLIKEN ATOMIC CHARGES
-----------------------
   0 C :   -0.142308
   1 C :   -0.142292
   2 C :   -0.142308
   3 C :   -0.142308
   4 C :   -0.142292
   5 C :   -0.142308
   6 H :    0.142313
   7 H :    0.142283
   8 H :    0.142313
   9 H :    0.142313
  10 H :    0.142283
  11 H :    0.142313
Sum of atomic charges:   -0.0000000

LOEWDIN ATOMIC CHARGES
----------------------
   0 C :    0.025853
   1 C :    0.025856
   2 C :    0.025853
   3 C :    0.025853
   4 C :    0.025856
   5 C :    0.025853
   6 H :   -0.025854
   7 H :   -0.025855
   8 H :   -0.025854
   9 H :   -0.025854
  10 H :   -0.025855
  11 H :   -0.025854

  Mayer bond orders larger than 0.100000
B(  0-C ,  1-C ) :   1.3199 B(  0-C ,  5-C ) :   1.3199 B(  0-C ,  6-H ) :   0.9821
B(  1-C ,  2-C ) :   1.3199 B(  1-C ,  7-H ) :   0.9821 B(  2-C ,  3-C ) :   1.3199
B(  2-C ,  8-H ) :   0.9821 B(  3-C ,  4-C ) :   1.3199 B(  3-C ,  9-H ) :   0.9821
B(  4-C ,  5-C ) :   1.3199 B(  4-C , 10-H ) :   0.9821 B(  5-C , 11-H ) :   0.9821

FINAL SINGLE POINT ENERGY      -230.849473938907

DIPOLE MOMENT
-------------
                                X             Y             Z
Electronic contribution:      0.00000       0.00000      -0.00000
Nuclear contribution   :      0.00000       0.00000       0.00000
                        -----------------------------------------
Total Dipole Moment    :      0.00000       0.00000      -0.00000
                        -----------------------------------------
Magnitude (a.u.)       :      0.00000
Magnitude (Debye)      :      0.00000

Rotational constants in cm-1:     0.188954     0.188927     0.094470
Rotational constants in MHz :  5664.683605  5663.875242  2832.139697

                             ****ORCA TERMINATED NORMALLY****
TOTAL RUN TIME: 0 days 0 hours 0 minutes 11 seconds 758 msec
