                         Program Version 5.0.0 -  RELEASE  -
|  1> ! RHF def2-TZVP TightSCF
|  2>
|  3> %pal
|  4>     nprocs 16
|  5> end
|  6>
|  7> %scf
|  8>     STABPerform true
|  9> end
| 10>
| 11> *xyz 2 1
| 12>  Fe                 6.20397196    1.03714637    0.17096759
| 13>  O                  8.02343961    0.99562593    0.15635557
| 14>  O                  6.24694430   -0.78162449    0.11972374
| 15>  O                  6.22607513    1.15774049   -1.64489818
| 16>  O                  4.38440248    1.01816527    0.20570458
| 17>  O                  6.16557932    2.85626904    0.21242489
| 18>  O                  6.16850601    1.06001114    1.99047834
| 19>  H                  4.06545864    1.78648828    0.68482314
| 20>  H                  4.08101507    0.21943896    0.64341723
| 21>  H                  6.97846238    3.18466572    0.60354733
| 22>  H                  5.41693185    3.14865831    0.73743487
| 23>  H                  6.90726982    0.55047930    2.33136739
| 24>  H                  5.34491271    0.67543823    2.29934360
| 25>  H                  8.36474659    1.75961228    0.62692374
| 26>  H                  8.32866067    0.19290442    0.58539903
| 27>  H                  7.07410906   -1.09285932    0.49459883
| 28>  H                  5.51267410   -1.13351772    0.62826915
| 29>  H                  6.97521418    0.66593956   -1.98916919
| 30>  H                  5.41263500    0.79176715   -1.99983292
| 31> *
| 32>
| 33>
| 34>                          ****END OF INPUT****

CARTESIAN COORDINATES (ANGSTROEM)
---------------------------------
  Fe     6.203972    1.037146    0.170968
  O      8.023440    0.995626    0.156356
  O      6.246944   -0.781624    0.119724
  O      6.226075    1.157740   -1.644898
  O      4.384402    1.018165    0.205705
  O      6.165579    2.856269    0.212425
  O      6.168506    1.060011    1.990478
  H      4.065459    1.786488    0.684823
  H      4.081015    0.219439    0.643417
  H      6.978462    3.184666    0.603547
  H      5.416932    3.148658    0.737435
  H      6.907270    0.550479    2.331367
  H      5.344913    0.675438    2.299344
  H      8.364747    1.759612    0.626924
  H      8.328661    0.192904    0.585399
  H      7.074109   -1.092859    0.494599
  H      5.512674   -1.133518    0.628269
  H      6.975214    0.665940   -1.989169
  H      5.412635    0.791767   -1.999833

 Total Charge           Charge          ....    2
 Multiplicity           Mult            ....    1
 Number of Electrons    NEL             ....   84
 Basis Dimension        Dim             ....  303

ORBITAL ENERGIES
----------------

  NO   OCC          E(Eh)            E(eV)
   0   2.0000    -261.591097     -7118.2556
   1   2.0000     -32.160319      -875.1268
   2   2.0000     -27.640131      -752.1262
   3   2.0000     -27.639381      -752.1058
   4   2.0000     -27.638751      -752.0887
   5   2.0000     -20.969294      -570.6035
   6   2.0000     -20.967867      -570.5647
   7   2.0000     -20.964650      -570.4771
   8   2.0000     -20.964483      -570.4726
   9   2.0000     -20.929830      -569.5296
  10   2.0000     -20.896072      -568.6110
  11   2.0000      -4.399250      -119.7097
  12   2.0000      -2.986344       -81.2626
  13   2.0000      -2.984276       -81.2063
  14   2.0000      -2.982593       -81.1605
  15   2.0000      -1.798770       -48.9470
  16   2.0000      -1.772592       -48.2347
  17   2.0000      -1.767908       -48.1072
  18   2.0000      -1.764666       -48.0190
  19   2.0000      -1.736096       -47.2416
  20   2.0000      -1.702452       -46.3261
  21   2.0000      -1.187968       -32.3263
  22   2.0000      -1.158764       -31.5316
  23   2.0000      -1.144357       -31.1395
  24   2.0000      -1.127633       -30.6845
  25   2.0000      -1.090475       -29.6733
  26   2.0000      -1.085015       -29.5248
  27   2.0000      -1.065859       -29.0035
  28   2.0000      -1.040347       -28.3093
  29   2.0000      -1.023766       -27.8581
  30   2.0000      -1.007008       -27.4021
  31   2.0000      -0.997315       -27.1383
  32   2.0000      -0.981394       -26.7051
  33   2.0000      -0.952274       -25.9127
  34   2.0000      -0.938989       -25.5512
  35   2.0000      -0.931071       -25.3357
  36   2.0000      -0.916570       -24.9411
  37   2.0000      -0.895972       -24.3806
  38   2.0000      -0.867452       -23.6046
  39   2.0000      -0.797676       -21.7059
  40   2.0000      -0.784367       -21.3437
  41   2.0000      -0.772131       -21.0107
  42   0.0000      -0.253853        -6.9077
  43   0.0000      -0.204253        -5.5580
  44   0.0000      -0.184213        -5.0127
  45   0.0000      -0.157326        -4.2811
  46   0.0000      -0.154174        -4.1953

MULLIKEN ATOMIC CHARGES
-----------------------
   0 Fe:    0.542299
   1 O :   -0.549438
   2 O :   -0.522255
   3 O :   -0.538657
   4 O :   -0.556580
   5 O :   -0.501880
   6 O :   -0.540453
   7 H :    0.398126
   8 H :    0.377391
   9 H :    0.381510
  10 H :    0.377881
  11 H :    0.397310
  12 H :    0.394559
  13 H :    0.401743
  14 H :    0.371254
  15 H :    0.377446
  16 H :    0.382890
  17 H :    0.403240
  18 H :    0.403613
Sum of atomic charges:    2.0000000

LOEWDIN ATOMIC CHARGES
----------------------
   0 Fe:   -0.355199
   1 O :   -0.010374
   2 O :   -0.012956
   3 O :   -0.019497
   4 O :   -0.010240
   5 O :   -0.008549
   6 O :   -0.028935
   7 H :    0.208776
   8 H :    0.198523
   9 H :    0.203512
  10 H :    0.200132
  11 H :    0.204506
  12 H :    0.202386
  13 H :    0.211524
  14 H :    0.196343
  15 H :    0.199914
  16 H :    0.202095
  17 H :    0.208338
  18 H :    0.209703

  Mayer bond orders larger than 0.100000
B(  0-Fe,  1-O ) :   0.3895 B(  0-Fe,  2-O ) :   0.3763 B(  0-Fe,  3-O ) :   0.4595
B(  0-Fe,  4-O ) :   0.3779 B(  0-Fe,  5-O ) :   0.4399 B(  0-Fe,  6-O ) :   0.3559
B(  1-O , 13-H ) :   0.8381 B(  1-O , 14-H ) :   0.8563 B(  2-O , 15-H ) :   0.8556
B(  2-O , 16-H ) :   0.8523 B(  3-O , 17-H ) :   0.8368 B(  3-O , 18-H ) :   0.8377
B(  4-O ,  7-H ) :   0.8399 B(  4-O ,  8-H ) :   0.8530 B(  5-O ,  9-H ) :   0.8523
B(  5-O , 10-H ) :   0.8527 B(  6-O , 11-H ) :   0.8421 B(  6-O , 12-H ) :   0.8437

FINAL SINGLE POINT ENERGY     -1718.133545022212

DIPOLE MOMENT
-------------
                                X             Y             Z
Electronic contribution:      0.00757       0.33423      -0.80234
Nuclear contribution   :      0.01944      -1.57275       3.19046
                        -----------------------------------------
Total Dipole Moment    :      0.02701      -1.23852       2.38811
                        -----------------------------------------
Magnitude (a.u.)       :      2.69030
Magnitude (Debye)      :      6.83821

Rotational constants in cm-1:     0.067502     0.065853     0.064678
Rotational constants in MHz :  2023.652591  1974.224213  1938.985718

                             ****ORCA TERMINATED NORMALLY****
TOTAL RUN TIME: 0 days 0 hours 1 minutes 22 seconds 891 msec
