                         Program Version 5.0.0 -  RELEASE  -
|  1> ! RKS B3LYP cc-pvdz D3 NoUseSym Opt Freq pal8
|  2>
|  3> *xyz 0 1
|  4>  C                  1.20809735    0.69749533   -0.00000000
|  5>  C                  0.00000000    1.39499067   -0.00000000
|  6>  C                 -1.20809735    0.69749533   -0.00000000
|  7>  C                 -1.20809735   -0.69749533   -0.00000000
|  8>  C                 -0.00000000   -1.39499067   -0.00000000
|  9>  C                  1.20809735   -0.69749533   -0.00000000
| 10>  H                  2.16038781    1.24730049   -0.00000000
| 11>  H                  0.00000000    2.49460097   -0.00000000
| 12>  H                 -2.16038781    1.24730049   -0.00000000
| 13>  H                 -2.16038781   -1.24730049   -0.00000000
| 14>  H                  0.00000000   -2.49460097   -0.00000000
| 15>  H                  2.16038781   -1.24730049   -0.00000000
| 16> *
| 17>
| 18>
| 19>
| 20>
| 21>                          ****END OF INPUT****
 Total Charge           Charge          ....    0
 Multiplicity           Mult            ....    1
 Number of Electrons    NEL             ....   42
Dispersion correction           -0.018871921
FINAL SINGLE POINT ENERGY      -232.127529735736
Dispersion correction            ... done
Dispersion correction           -0.018875141
FINAL SINGLE POINT ENERGY      -232.127771377005
Dispersion correction            ... done
                    ***********************HURRAY********************

CARTESIAN COORDINATES (ANGSTROEM)
---------------------------------
  C      1.211058    0.699165   -0.000000
  C      0.000000    1.398274   -0.000000
  C     -1.211058    0.699165    0.000000
  C     -1.211058   -0.699165   -0.000000
  C     -0.000000   -1.398274   -0.000000
  C      1.211058   -0.699165   -0.000000
  H      2.157279    1.245507    0.000000
  H     -0.000000    2.490908   -0.000000
  H     -2.157279    1.245507    0.000000
  H     -2.157279   -1.245507    0.000000
  H     -0.000000   -2.490908   -0.000000
  H      2.157279   -1.245507    0.000000

 Multiplicity           Mult            ....    1
 Number of Electrons    NEL             ....   42
 Basis Dimension        Dim             ....  114

ORBITAL ENERGIES
----------------

  NO   OCC          E(Eh)            E(eV)
   0   2.0000     -10.188078      -277.2317
   1   2.0000     -10.187868      -277.2260
   2   2.0000     -10.187866      -277.2259
   3   2.0000     -10.187387      -277.2129
   4   2.0000     -10.187383      -277.2128
   5   2.0000     -10.187166      -277.2069
   6   2.0000      -0.848946       -23.1010
   7   2.0000      -0.741635       -20.1809
   8   2.0000      -0.741615       -20.1804
   9   2.0000      -0.597965       -16.2715
  10   2.0000      -0.597964       -16.2714
  11   2.0000      -0.516768       -14.0620
  12   2.0000      -0.456551       -12.4234
  13   2.0000      -0.441407       -12.0113
  14   2.0000      -0.416607       -11.3364
  15   2.0000      -0.416577       -11.3356
  16   2.0000      -0.362566        -9.8659
  17   2.0000      -0.340041        -9.2530
  18   2.0000      -0.340024        -9.2525
  19   2.0000      -0.249929        -6.8009
  20   2.0000      -0.249925        -6.8008
  21   0.0000      -0.003178        -0.0865
  22   0.0000      -0.003167        -0.0862
  23   0.0000       0.060212         1.6384
  24   0.0000       0.100770         2.7421
  25   0.0000       0.100777         2.7423

MULLIKEN ATOMIC CHARGES
-----------------------
   0 C :    0.030564
   1 C :    0.030206
   2 C :    0.030564
   3 C :    0.030565
   4 C :    0.030206
   5 C :    0.030563
   6 H :   -0.030504
   7 H :   -0.030326
   8 H :   -0.030504
   9 H :   -0.030504
  10 H :   -0.030326
  11 H :   -0.030504
Sum of atomic charges:    0.0000000

LOEWDIN ATOMIC CHARGES
----------------------
   0 C :   -0.026223
   1 C :   -0.026283
   2 C :   -0.026223
   3 C :   -0.026223
   4 C :   -0.026283
   5 C :   -0.026223
   6 H :    0.026231
   7 H :    0.026266
   8 H :    0.026231
   9 H :    0.026231
  10 H :    0.026266
  11 H :    0.026231

  Mayer bond orders larger than 0.100000
B(  0-C ,  1-C ) :   1.4623 B(  0-C ,  5-C ) :   1.4622 B(  0-C ,  6-H ) :   0.9419
B(  1-C ,  2-C ) :   1.4623 B(  1-C ,  7-H ) :   0.9418 B(  2-C ,  3-C ) :   1.4622
B(  2-C ,  8-H ) :   0.9419 B(  3-C ,  4-C ) :   1.4623 B(  3-C ,  9-H ) :   0.9419
B(  4-C ,  5-C ) :   1.4623 B(  4-C , 10-H ) :   0.9418 B(  5-C , 11-H ) :   0.9419

Dispersion correction           -0.018871730
FINAL SINGLE POINT ENERGY      -232.127773320925

DIPOLE MOMENT
-------------
                                X             Y             Z
Electronic contribution:     -0.00000       0.00000      -0.00000
Nuclear contribution   :      0.00000      -0.00000       0.00000
                        -----------------------------------------
Total Dipole Moment    :     -0.00000       0.00000       0.00000
                        -----------------------------------------
Magnitude (a.u.)       :      0.00000
Magnitude (Debye)      :      0.00000

Dispersion correction in the Hessian             ... done   (      0.3 sec)

VIBRATIONAL FREQUENCIES
-----------------------

Scaling factor for frequencies =  1.000000000  (already applied!)

   0:         0.00 cm**-1
   1:         0.00 cm**-1
   2:         0.00 cm**-1
   3:         0.00 cm**-1
   4:         0.00 cm**-1
   5:         0.00 cm**-1
   6:       413.33 cm**-1
   7:       413.50 cm**-1
   8:       618.94 cm**-1
   9:       619.06 cm**-1
  10:       688.39 cm**-1
  11:       722.43 cm**-1
  12:       864.90 cm**-1
  13:       865.01 cm**-1
  14:       986.34 cm**-1
  15:       986.44 cm**-1
  16:      1015.68 cm**-1
  17:      1021.95 cm**-1
  18:      1021.97 cm**-1
  19:      1059.80 cm**-1
  20:      1059.83 cm**-1
  21:      1162.95 cm**-1
  22:      1187.20 cm**-1
  23:      1187.32 cm**-1
  24:      1358.47 cm**-1
  25:      1363.97 cm**-1
  26:      1507.18 cm**-1
  27:      1507.21 cm**-1
  28:      1646.46 cm**-1
  29:      1646.49 cm**-1
  30:      3162.18 cm**-1
  31:      3172.27 cm**-1
  32:      3172.41 cm**-1
  33:      3188.66 cm**-1
  34:      3188.80 cm**-1
  35:      3199.53 cm**-1

IR SPECTRUM
-----------

 Mode   freq       eps      Int      T**2         TX        TY        TZ
       cm**-1   L/(mol*cm) km/mol    a.u.
----------------------------------------------------------------------------
  6:    413.33   0.000000    0.00  0.000000  ( 0.000000 -0.000000 -0.000000)
  7:    413.50   0.000000    0.00  0.000000  (-0.000000 -0.000000  0.000035)
  8:    618.94   0.000000    0.00  0.000000  ( 0.000000 -0.000000  0.000000)
  9:    619.06   0.000000    0.00  0.000000  (-0.000000  0.000000 -0.000000)
 10:    688.39   0.014581   73.68  0.006610  (-0.000000  0.000000 -0.081300)
 11:    722.43   0.000000    0.00  0.000000  ( 0.000000  0.000000 -0.000000)
 12:    864.90   0.000000    0.00  0.000000  ( 0.000000 -0.000000 -0.000000)
 13:    865.01   0.000000    0.00  0.000000  (-0.000000  0.000000  0.000000)
 14:    986.34   0.000000    0.00  0.000000  ( 0.000000 -0.000000 -0.000000)
 15:    986.44   0.000000    0.00  0.000000  ( 0.000000  0.000000 -0.000000)
 16:   1015.68   0.000000    0.00  0.000000  (-0.000000 -0.000021  0.000000)
 17:   1021.95   0.000000    0.00  0.000000  (-0.000000  0.000000 -0.000000)
 18:   1021.97   0.000000    0.00  0.000000  (-0.000000 -0.000000  0.000000)
 19:   1059.80   0.000873    4.41  0.000257  ( 0.000082  0.016032  0.000000)
 20:   1059.83   0.000875    4.42  0.000258  (-0.016055  0.000082  0.000000)
 21:   1162.95   0.000000    0.00  0.000000  ( 0.000047 -0.000000  0.000000)
 22:   1187.20   0.000000    0.00  0.000000  ( 0.000000  0.000000  0.000000)
 23:   1187.32   0.000000    0.00  0.000000  (-0.000000  0.000000  0.000000)
 24:   1358.47   0.000000    0.00  0.000000  (-0.000040  0.000000  0.000000)
 25:   1363.97   0.000000    0.00  0.000000  ( 0.000000  0.000000 -0.000000)
 26:   1507.18   0.001338    6.76  0.000277  ( 0.016642  0.000009 -0.000000)
 27:   1507.21   0.001325    6.70  0.000274  (-0.000009  0.016564 -0.000000)
 28:   1646.46   0.000000    0.00  0.000000  (-0.000000  0.000000  0.000000)
 29:   1646.49   0.000000    0.00  0.000000  ( 0.000000 -0.000000  0.000000)
 30:   3162.18   0.000000    0.00  0.000000  ( 0.000000  0.000180  0.000000)
 31:   3172.27   0.000000    0.00  0.000000  (-0.000000  0.000000 -0.000000)
 32:   3172.41   0.000000    0.00  0.000000  (-0.000000  0.000000 -0.000000)
 33:   3188.66   0.008170   41.29  0.000800  (-0.000002 -0.028277  0.000000)
 34:   3188.80   0.008165   41.26  0.000799  (-0.028267  0.000002 -0.000000)
 35:   3199.53   0.000000    0.00  0.000000  (-0.000000  0.000000  0.000000)

--------------------------
THERMOCHEMISTRY AT 298.15K
--------------------------

Temperature         ... 298.15 K
Pressure            ... 1.00 atm
Total Mass          ... 78.11 AMU

Throughout the following assumptions are being made:
  (1) The electronic state is orbitally nondegenerate
  (2) There are no thermally accessible electronically excited states
  (3) Hindered rotations indicated by low frequency modes are not
      treated as such but are treated as vibrations and this may
      cause some error
  (4) All equations used are the standard statistical mechanics
      equations for an ideal gas
  (5) All vibrations are strictly harmonic

freq.     413.33  E(vib)   ...       0.19
freq.     413.50  E(vib)   ...       0.19
freq.     618.94  E(vib)   ...       0.09
freq.     619.06  E(vib)   ...       0.09
freq.     688.39  E(vib)   ...       0.07
freq.     722.43  E(vib)   ...       0.07
freq.     864.90  E(vib)   ...       0.04
freq.     865.01  E(vib)   ...       0.04
freq.     986.34  E(vib)   ...       0.02
freq.     986.44  E(vib)   ...       0.02
freq.    1015.68  E(vib)   ...       0.02
freq.    1021.95  E(vib)   ...       0.02
freq.    1021.97  E(vib)   ...       0.02
freq.    1059.80  E(vib)   ...       0.02
freq.    1059.83  E(vib)   ...       0.02
freq.    1162.95  E(vib)   ...       0.01
freq.    1187.20  E(vib)   ...       0.01
freq.    1187.32  E(vib)   ...       0.01
freq.    1358.47  E(vib)   ...       0.01
freq.    1363.97  E(vib)   ...       0.01
freq.    1507.18  E(vib)   ...       0.00
freq.    1507.21  E(vib)   ...       0.00
freq.    1646.46  E(vib)   ...       0.00
freq.    1646.49  E(vib)   ...       0.00
freq.    3162.18  E(vib)   ...       0.00
freq.    3172.27  E(vib)   ...       0.00
freq.    3172.41  E(vib)   ...       0.00
freq.    3188.66  E(vib)   ...       0.00
freq.    3188.80  E(vib)   ...       0.00
freq.    3199.53  E(vib)   ...       0.00

------------
INNER ENERGY
------------

The inner energy is: U= E(el) + E(ZPE) + E(vib) + E(rot) + E(trans)
    E(el)   - is the total energy from the electronic structure calculation
              = E(kin-el) + E(nuc-el) + E(el-el) + E(nuc-nuc)
    E(ZPE)  - the the zero temperature vibrational energy from the frequency calculation
    E(vib)  - the the finite temperature correction to E(ZPE) due to population
              of excited vibrational states
    E(rot)  - is the rotational thermal energy
    E(trans)- is the translational thermal energy

Summary of contributions to the inner energy U:
Electronic energy                ...   -232.12777332 Eh
Zero point energy                ...      0.10025912 Eh      62.91 kcal/mol
Thermal vibrational correction   ...      0.00156278 Eh       0.98 kcal/mol
Thermal rotational correction    ...      0.00141627 Eh       0.89 kcal/mol
Thermal translational correction ...      0.00141627 Eh       0.89 kcal/mol
-----------------------------------------------------------------------
Total thermal energy                   -232.02311888 Eh

Summary of corrections to the electronic energy:
(perhaps to be used in another calculation)
Total thermal correction                  0.00439533 Eh       2.76 kcal/mol
Non-thermal (ZPE) correction              0.10025912 Eh      62.91 kcal/mol
-----------------------------------------------------------------------
Total correction                          0.10465444 Eh      65.67 kcal/mol

--------
ENTHALPY
--------

The enthalpy is H = U + kB*T
                kB is Boltzmann's constant
Total free energy                 ...   -232.02311888 Eh
Thermal Enthalpy correction       ...      0.00094421 Eh       0.59 kcal/mol
-----------------------------------------------------------------------
Total Enthalpy                    ...   -232.02217467 Eh

Note: Rotational entropy computed according to Herzberg
Infrared and Raman Spectra, Chapter V,1, Van Nostrand Reinhold, 1945
Point Group:  D2h, Symmetry Number:   4
Rotational constants in cm-1:     0.188954     0.188927     0.094470

Vibrational entropy computed according to the QRRHO of S. Grimme
Chem.Eur.J. 2012 18 9955

-------
ENTROPY
-------

The entropy contributions are T*S = T*(S(el)+S(vib)+S(rot)+S(trans))
     S(el)   - electronic entropy
     S(vib)  - vibrational entropy
     S(rot)  - rotational entropy
     S(trans)- translational entropy
The entropies will be listed as multiplied by the temperature to get
units of energy

Electronic entropy                ...      0.00000000 Eh      0.00 kcal/mol
Vibrational entropy               ...      0.00209514 Eh      1.31 kcal/mol
Rotational entropy                ...      0.01088910 Eh      6.83 kcal/mol
Translational entropy             ...      0.01852142 Eh     11.62 kcal/mol
-----------------------------------------------------------------------
Final entropy term                ...      0.03150565 Eh     19.77 kcal/mol

In case the symmetry of your molecule has not been determined correctly
or in case you have a reason to use a different symmetry number we print
out the resulting rotational entropy values for sn=1,12 :
 --------------------------------------------------------
|  sn= 1 | S(rot)=       0.01219801 Eh      7.65 kcal/mol|
|  sn= 2 | S(rot)=       0.01154355 Eh      7.24 kcal/mol|
|  sn= 3 | S(rot)=       0.01116072 Eh      7.00 kcal/mol|
|  sn= 4 | S(rot)=       0.01088910 Eh      6.83 kcal/mol|
|  sn= 5 | S(rot)=       0.01067841 Eh      6.70 kcal/mol|
|  sn= 6 | S(rot)=       0.01050626 Eh      6.59 kcal/mol|
|  sn= 7 | S(rot)=       0.01036072 Eh      6.50 kcal/mol|
|  sn= 8 | S(rot)=       0.01023464 Eh      6.42 kcal/mol|
|  sn= 9 | S(rot)=       0.01012343 Eh      6.35 kcal/mol|
|  sn=10 | S(rot)=       0.01002395 Eh      6.29 kcal/mol|
|  sn=11 | S(rot)=       0.00993396 Eh      6.23 kcal/mol|
|  sn=12 | S(rot)=       0.00985181 Eh      6.18 kcal/mol|
 --------------------------------------------------------

-------------------
GIBBS FREE ENERGY
-------------------

The Gibbs free energy is G = H - T*S

Total enthalpy                    ...   -232.02217467 Eh
Total entropy correction          ...     -0.03150565 Eh    -19.77 kcal/mol
-----------------------------------------------------------------------
Final Gibbs free energy         ...   -232.05368032 Eh

For completeness - the Gibbs free energy minus the electronic energy
G-E(el)                           ...      0.07409300 Eh     46.49 kcal/mol

                             ****ORCA TERMINATED NORMALLY****
TOTAL RUN TIME: 0 days 0 hours 0 minutes 42 seconds 490 msec
