 Gaussian 16, Revision A.03,
 Gaussian 16:  ES64L-G16RevA.03 25-Dec-2016

 ---------------
 #p BLYP/cc-pVDZ
 ---------------

 --------------------------------------
 2,7-dicl-dibenzene SP RKS BLYP cc-pVDZ
 --------------------------------------
 Symbolic Z-matrix:
 Charge =  0 Multiplicity = 1

                         Standard orientation:
 ---------------------------------------------------------------------
 Center     Atomic      Atomic             Coordinates (Angstroms)
 Number     Number       Type             X           Y           Z
 ---------------------------------------------------------------------
      1          6           0        2.244851    2.071295    0.751392
      2          6           0        3.304207    1.300888    0.295737
      3          6           0        3.045185    0.017738   -0.158120
      4          6           0        1.759769   -0.498571   -0.162997
      5          6           0        0.693974    0.275570    0.295604
      6          6           0        0.952908    1.567889    0.752876
      7          1           0        2.431824    3.072719    1.115696
      8          1           0        4.313802    1.684902    0.291253
      9          1           0        1.591308   -1.495485   -0.542306
     10          1           0        0.143223    2.177007    1.130202
     11          6           0       -0.693966   -0.275587    0.295567
     12          6           0       -1.759785    0.498546   -0.163005
     13          6           0       -0.952881   -1.567887    0.752886
     14          6           0       -3.045206   -0.017708   -0.158130
     15          1           0       -1.591168    1.495446   -0.542292
     16          6           0       -2.244844   -2.071272    0.751396
     17          1           0       -0.143236   -2.177042    1.130233
     18          6           0       -3.304192   -1.300884    0.295735
     19          1           0       -2.431844   -3.072681    1.115730
     20          1           0       -4.313786   -1.684904    0.291264
     21         17           0        4.357579   -0.965630   -0.743634
     22         17           0       -4.357593    0.965627   -0.743627
 ---------------------------------------------------------------------

 SCF Done:  E(RB-LYP) =  -1382.31710643     A.U. after   15 cycles

 The electronic state is 1-A.
 Alpha  occ. eigenvalues -- -100.74680-100.74679  -9.98386  -9.98386  -9.94784
 Alpha  occ. eigenvalues --   -9.94773  -9.93849  -9.93849  -9.93797  -9.93797
 Alpha  occ. eigenvalues --   -9.93784  -9.93784  -9.93398  -9.93398  -9.17733
 Alpha  occ. eigenvalues --   -9.17732  -7.01032  -7.01031  -6.99933  -6.99932
 Alpha  occ. eigenvalues --   -6.99871  -6.99871  -0.81707  -0.81048  -0.77261
 Alpha  occ. eigenvalues --   -0.75437  -0.70804  -0.67719  -0.66246  -0.65666
 Alpha  occ. eigenvalues --   -0.57628  -0.55898  -0.53623  -0.52221  -0.47856
 Alpha  occ. eigenvalues --   -0.45598  -0.43311  -0.42241  -0.41130  -0.40101
 Alpha  occ. eigenvalues --   -0.38682  -0.38444  -0.38234  -0.35697  -0.34966
 Alpha  occ. eigenvalues --   -0.33750  -0.32549  -0.31457  -0.30972  -0.29805
 Alpha  occ. eigenvalues --   -0.28733  -0.26714  -0.26458  -0.24943  -0.22395
 Alpha  occ. eigenvalues --   -0.21805  -0.20958
 Alpha virt. eigenvalues --   -0.06311  -0.04257  -0.04235  -0.01881   0.00394
 Alpha virt. eigenvalues --    0.00855   0.05337   0.05559   0.08015   0.08602
 Alpha virt. eigenvalues --    0.09049   0.10218   0.10311   0.11391   0.11874

 Mulliken charges:
               1
     1  C    0.082335
     2  C    0.147614
     3  C   -0.126117
     4  C    0.143711
     5  C    0.035182
     6  C    0.053159
     7  H   -0.053634
     8  H   -0.059045
     9  H   -0.068390
    10  H   -0.071171
    11  C    0.035172
    12  C    0.143711
    13  C    0.053161
    14  C   -0.126098
    15  H   -0.068392
    16  C    0.082331
    17  H   -0.071171
    18  C    0.147605
    19  H   -0.053636
    20  H   -0.059048
    21  Cl  -0.083647
    22  Cl  -0.083632
 Sum of Mulliken charges =  -0.00000

 Dipole moment (field-independent basis, Debye):
    X=             -0.0001    Y=              0.0001    Z=              1.0228  Tot=              1.0228
 Quadrupole moment (field-independent basis, Debye-Ang):
   XX=            -99.3994   YY=            -86.6263   ZZ=            -96.3836
   XY=              7.4443   XZ=              0.0002   YZ=             -0.0000

 Normal termination of Gaussian 16 at Wed May  4 12:32:37 2022.
