 Gaussian 16, Revision A.03,
 Gaussian 16:  ES64L-G16RevA.03 25-Dec-2016

 -----------------------
 # ROHF def2SVP Pop=NOAB
 -----------------------

 ----------------------
 C7H14 two-free radical
 ----------------------
 Symbolic Z-matrix:
 Charge =  0 Multiplicity = 3

                         Standard orientation:
 ---------------------------------------------------------------------
 Center     Atomic      Atomic             Coordinates (Angstroms)
 Number     Number       Type             X           Y           Z
 ---------------------------------------------------------------------
      1          6           0       -3.718495    0.068095    0.172328
      2          6           0       -2.362236    0.532389   -0.271773
      3          1           0       -4.243919   -0.701737   -0.381531
      4          1           0       -4.073806    0.287740    1.172805
      5          6           0       -1.218777   -0.387295    0.185266
      6          1           0       -2.341708    0.606280   -1.363857
      7          1           0       -2.178886    1.541548    0.110841
      8          6           0        0.158086    0.092884   -0.271342
      9          1           0       -1.235006   -0.463614    1.277864
     10          1           0       -1.398649   -1.398898   -0.194488
     11          1           0        0.170157    0.168299   -1.365091
     12          1           0        0.329379    1.105804    0.106893
     13          6           0        1.295459   -0.822620    0.180281
     14          1           0        1.110077   -1.835581   -0.192395
     15          1           0        1.294641   -0.892999    1.273701
     16          6           0        2.690127   -0.377905   -0.293335
     17          1           0        3.406152   -1.161102   -0.022187
     18          1           0        2.695775   -0.320271   -1.385917
     19          6           0        3.154723    0.929205    0.282341
     20          1           0        3.083446    1.853119   -0.278101
     21          1           0        3.389026    1.002893    1.338871
 ---------------------------------------------------------------------

 SCF Done:  E(ROHF) =  -272.936270510     A.U. after   15 cycles

 Mulliken charges and spin densities:
               1          2
     1  C   -0.107424   0.963528
     2  C   -0.045575   0.001085
     3  H    0.055472   0.005511
     4  H    0.055566   0.005512
     5  C   -0.063026   0.008727
     6  H    0.031011   0.003685
     7  H    0.031258   0.003661
     8  C   -0.060128   0.005185
     9  H    0.022392   0.002033
    10  H    0.021899   0.002085
    11  H    0.018306   0.000398
    12  H    0.025482   0.002516
    13  C   -0.052792   0.009207
    14  H    0.024025   0.002764
    15  H    0.021719   0.001262
    16  C   -0.031158   0.001054
    17  H    0.037802   0.008523
    18  H    0.029853   0.000943
    19  C   -0.129093   0.961400
    20  H    0.060105   0.005607
    21  H    0.054304   0.005313
 Sum of Mulliken charges =  -0.00000   2.00000

 Dipole moment (field-independent basis, Debye):
    X=              0.0691    Y=             -0.2175    Z=              0.0467  Tot=              0.2329
 Quadrupole moment (field-independent basis, Debye-Ang):
   XX=            -51.9314   YY=            -47.6390   ZZ=            -46.3958
   XY=              0.4828   XZ=             -0.0086   YZ=              0.6216

 Normal termination of Gaussian 16 at Sun May 15 18:31:22 2022.
