 Gaussian 16, Revision A.03,
 Gaussian 16:  ES64L-G16RevA.03 25-Dec-2016

 -------------------------------------------
 #p RHF/3-21G guess=mix stable=opt sym=loose
 -------------------------------------------

 -------
 C60 opt
 -------
 Symbolic Z-matrix:
 Charge =  0 Multiplicity = 1

                         Standard orientation:
 ---------------------------------------------------------------------
 Center     Atomic      Atomic             Coordinates (Angstroms)
 Number     Number       Type             X           Y           Z
 ---------------------------------------------------------------------
      1          6           0        0.770009   -1.059826    3.408513
      2          6           0       -0.770009   -1.059826    3.408513
      3          6           0       -1.447603   -1.992454    2.696048
      4          6           0       -0.677594   -3.052280    1.886413
      5          6           0        0.677594   -3.052280    1.886413
      6          6           0        1.447603   -1.992454    2.696048
      7          6           0        1.245900    0.404818    3.408513
      8          6           0        0.000000    1.310017    3.408513
      9          6           0       -1.245900    0.404818    3.408513
     10          6           0       -2.342270    0.761050    2.696048
     11          6           0       -2.693503   -1.587637    1.886413
     12          6           0       -1.447603   -3.302471    0.576396
     13          6           0       -0.770009   -3.522635   -0.576396
     14          6           0        0.770009   -3.522635   -0.576396
     15          6           0        1.447603   -3.302471    0.576396
     16          6           0        2.693503   -2.397272    0.576396
     17          6           0        2.693503   -1.587637    1.886413
     18          6           0        3.112279   -0.298776    1.886413
     19          6           0        2.342270    0.761050    2.696048
     20          6           0        0.000000    2.462809    2.696048
     21          6           0        1.245900    2.867626    1.886413
     22          6           0        2.342270    2.071067    1.886413
     23          6           0        3.112279    1.820876    0.576396
     24          6           0        3.588171    0.356232    0.576396
     25          6           0        3.588171   -0.356232   -0.576396
     26          6           0        3.112279   -1.820876   -0.576396
     27          6           0        2.342270   -2.071067   -1.886413
     28          6           0        1.245900   -2.867626   -1.886413
     29          6           0       -2.693503   -2.397272    0.576396
     30          6           0       -1.245900   -0.404818   -3.408513
     31          6           0       -2.342270   -0.761050   -2.696048
     32          6           0       -3.112279    0.298776   -1.886413
     33          6           0       -2.693503    1.587637   -1.886413
     34          6           0       -1.447603    1.992454   -2.696048
     35          6           0        0.770009    1.059826   -3.408513
     36          6           0        1.245900   -0.404818   -3.408513
     37          6           0        0.000000   -1.310017   -3.408513
     38          6           0       -0.000000   -2.462809   -2.696048
     39          6           0       -1.245900   -2.867626   -1.886413
     40          6           0       -2.342270   -2.071067   -1.886413
     41          6           0       -3.588171   -0.356232   -0.576396
     42          6           0       -3.588171    0.356232    0.576396
     43          6           0       -3.112279    1.820876    0.576396
     44          6           0       -2.693503    2.397272   -0.576396
     45          6           0       -1.447603    3.302471   -0.576396
     46          6           0       -0.677594    3.052280   -1.886413
     47          6           0        0.677594    3.052280   -1.886413
     48          6           0        1.447603    1.992454   -2.696048
     49          6           0        2.342270   -0.761050   -2.696048
     50          6           0        3.112279    0.298776   -1.886413
     51          6           0        2.693503    1.587637   -1.886413
     52          6           0        2.693503    2.397272   -0.576396
     53          6           0        1.447603    3.302471   -0.576396
     54          6           0        0.770009    3.522635    0.576396
     55          6           0       -0.770009    3.522635    0.576396
     56          6           0       -1.245900    2.867626    1.886413
     57          6           0       -2.342270    2.071067    1.886413
     58          6           0       -3.112279   -1.820876   -0.576396
     59          6           0       -3.112279   -0.298776    1.886413
     60          6           0       -0.770009    1.059826   -3.408513
 ---------------------------------------------------------------------

 SCF Done:  E(RHF) =  -2258.79547922     A.U. after   19 cycles
 SCF Done:  E(UHF) =  -2258.89122878     a.u. after   31 cycles

 Unable to determine electronic state:  an orbital has unidentified symmetry.
 Alpha  occ. eigenvalues --  -11.26558 -11.26558 -11.26530 -11.26530 -11.26501
 Alpha  occ. eigenvalues --  -11.26501 -11.26490 -11.26489 -11.26483 -11.26482
 Alpha  occ. eigenvalues --  -11.26471 -11.26468 -11.26459 -11.26458 -11.26458
 Alpha  occ. eigenvalues --  -11.26457 -11.26440 -11.26440 -11.26421 -11.26420
 Alpha  occ. eigenvalues --  -11.26409 -11.26406 -11.26403 -11.26400 -11.26396
 Alpha  occ. eigenvalues --  -11.26393 -11.26326 -11.26326 -11.26305 -11.26305
 Alpha  occ. eigenvalues --  -11.25666 -11.25665 -11.25582 -11.25582 -11.25541
 Alpha  occ. eigenvalues --  -11.25541 -11.25302 -11.25302 -11.24991 -11.24991
 Alpha  occ. eigenvalues --  -11.24966 -11.24966 -11.24958 -11.24957 -11.24945
 Alpha  occ. eigenvalues --  -11.24945 -11.24713 -11.24713 -11.24651 -11.24651
 Alpha  occ. eigenvalues --  -11.24629 -11.24629 -11.24567 -11.24567 -11.24509
 Alpha  occ. eigenvalues --  -11.24509 -11.24482 -11.24482 -11.24455 -11.24455
 Alpha  occ. eigenvalues --   -1.27761  -1.25546  -1.25415  -1.25364  -1.21135
 Alpha  occ. eigenvalues --   -1.20973  -1.20912  -1.20800  -1.20659  -1.14773
 Alpha  occ. eigenvalues --   -1.14642  -1.14545  -1.14460  -1.14267  -1.14074
 Alpha  occ. eigenvalues --   -1.13847  -1.07693  -1.07526  -1.07136  -1.06684
 Alpha  occ. eigenvalues --   -1.06304  -1.06274  -1.05427  -1.05166  -1.04805
 Alpha  occ. eigenvalues --   -1.00900  -1.00883  -1.00349  -1.00236  -1.00098
 Alpha  occ. eigenvalues --   -0.92390  -0.92100  -0.92033  -0.89878  -0.89795
 Alpha  occ. eigenvalues --   -0.89776  -0.87979  -0.87697  -0.87456  -0.87315
 Alpha  occ. eigenvalues --   -0.87262  -0.82941  -0.82826  -0.82684  -0.78969
 Alpha  occ. eigenvalues --   -0.74552  -0.74473  -0.74440  -0.74295  -0.73649
 Alpha  occ. eigenvalues --   -0.73617  -0.73576  -0.73522  -0.73399  -0.70180
 Alpha  occ. eigenvalues --   -0.70170  -0.70147  -0.68749  -0.68745  -0.68717
 Alpha  occ. eigenvalues --   -0.64852  -0.63567  -0.63243  -0.63066  -0.62960
 Alpha  occ. eigenvalues --   -0.62923  -0.62836  -0.62823  -0.62783  -0.62769
 Alpha  occ. eigenvalues --   -0.62684  -0.62662  -0.62615  -0.62589  -0.61802
 Alpha  occ. eigenvalues --   -0.61502  -0.61450  -0.57973  -0.57849  -0.57746
 Alpha  occ. eigenvalues --   -0.57661  -0.57574  -0.57382  -0.56977  -0.56758
 Alpha  occ. eigenvalues --   -0.56067  -0.55730  -0.55473  -0.55389  -0.49995
 Alpha  occ. eigenvalues --   -0.49871  -0.49819  -0.49796  -0.49728  -0.49602
 Alpha  occ. eigenvalues --   -0.49539  -0.49189  -0.49053  -0.48581  -0.48477
 Alpha  occ. eigenvalues --   -0.48447  -0.48280  -0.48164  -0.48145  -0.48020
 Alpha  occ. eigenvalues --   -0.47347  -0.43442  -0.43012  -0.42213  -0.41050
 Alpha  occ. eigenvalues --   -0.40392  -0.40130  -0.37180  -0.36813  -0.36767
 Alpha  occ. eigenvalues --   -0.36044  -0.34830  -0.34158  -0.33761  -0.33580
 Alpha virt. eigenvalues --    0.02431   0.03068   0.03813   0.04187   0.05799
 Alpha virt. eigenvalues --    0.06445   0.09819   0.10221   0.10429   0.10509
 Alpha virt. eigenvalues --    0.10645   0.10884   0.11526   0.12237   0.17484

  Beta  occ. eigenvalues --  -11.26558 -11.26558 -11.26534 -11.26534 -11.26501
  Beta  occ. eigenvalues --  -11.26501 -11.26490 -11.26488 -11.26481 -11.26479
  Beta  occ. eigenvalues --  -11.26470 -11.26469 -11.26460 -11.26460 -11.26451
  Beta  occ. eigenvalues --  -11.26448 -11.26445 -11.26441 -11.26432 -11.26431
  Beta  occ. eigenvalues --  -11.26424 -11.26421 -11.26401 -11.26398 -11.26389
  Beta  occ. eigenvalues --  -11.26388 -11.26335 -11.26335 -11.26324 -11.26323
  Beta  occ. eigenvalues --  -11.25626 -11.25626 -11.25522 -11.25521 -11.25496
  Beta  occ. eigenvalues --  -11.25496 -11.25370 -11.25370 -11.25101 -11.25101
  Beta  occ. eigenvalues --  -11.25058 -11.25058 -11.24888 -11.24888 -11.24845
  Beta  occ. eigenvalues --  -11.24845 -11.24701 -11.24701 -11.24665 -11.24665
  Beta  occ. eigenvalues --  -11.24621 -11.24621 -11.24570 -11.24570 -11.24508
  Beta  occ. eigenvalues --  -11.24508 -11.24489 -11.24489 -11.24455 -11.24455
  Beta  occ. eigenvalues --   -1.27761  -1.25514  -1.25474  -1.25337  -1.21116
  Beta  occ. eigenvalues --   -1.21002  -1.20896  -1.20809  -1.20657  -1.14786
  Beta  occ. eigenvalues --   -1.14691  -1.14498  -1.14473  -1.14223  -1.14021
  Beta  occ. eigenvalues --   -1.13917  -1.07702  -1.07440  -1.07189  -1.06717
  Beta  occ. eigenvalues --   -1.06311  -1.06267  -1.05526  -1.05034  -1.04832
  Beta  occ. eigenvalues --   -1.00925  -1.00873  -1.00375  -1.00240  -1.00053
  Beta  occ. eigenvalues --   -0.92388  -0.92100  -0.92031  -0.89867  -0.89838
  Beta  occ. eigenvalues --   -0.89748  -0.87938  -0.87720  -0.87498  -0.87295
  Beta  occ. eigenvalues --   -0.87258  -0.82937  -0.82841  -0.82672  -0.78969
  Beta  occ. eigenvalues --   -0.74583  -0.74445  -0.74415  -0.74318  -0.73644
  Beta  occ. eigenvalues --   -0.73605  -0.73562  -0.73548  -0.73404  -0.70187
  Beta  occ. eigenvalues --   -0.70160  -0.70150  -0.68755  -0.68734  -0.68723
  Beta  occ. eigenvalues --   -0.64846  -0.63523  -0.63262  -0.63111  -0.62932
  Beta  occ. eigenvalues --   -0.62920  -0.62838  -0.62820  -0.62787  -0.62777
  Beta  occ. eigenvalues --   -0.62685  -0.62655  -0.62607  -0.62591  -0.61745
  Beta  occ. eigenvalues --   -0.61635  -0.61381  -0.57931  -0.57887  -0.57766
  Beta  occ. eigenvalues --   -0.57641  -0.57564  -0.57476  -0.57025  -0.56659
  Beta  occ. eigenvalues --   -0.55837  -0.55745  -0.55661  -0.55390  -0.49997
  Beta  occ. eigenvalues --   -0.49877  -0.49822  -0.49795  -0.49737  -0.49608
  Beta  occ. eigenvalues --   -0.49604  -0.49132  -0.49108  -0.48494  -0.48467
  Beta  occ. eigenvalues --   -0.48398  -0.48276  -0.48188  -0.48115  -0.47784
  Beta  occ. eigenvalues --   -0.47650  -0.43449  -0.42839  -0.42272  -0.41125
  Beta  occ. eigenvalues --   -0.40471  -0.40089  -0.37226  -0.37193  -0.36787
  Beta  occ. eigenvalues --   -0.35583  -0.34872  -0.34304  -0.33960  -0.33200
  Beta virt. eigenvalues --    0.02441   0.03124   0.03790   0.04461   0.05463
  Beta virt. eigenvalues --    0.06531   0.09956   0.10048   0.10210   0.10510
  Beta virt. eigenvalues --    0.10684   0.10915   0.11491   0.12361   0.17552

 Mulliken charges and spin densities:
               1          2
     1  C   -0.003496  -0.459853
     2  C   -0.001878  -0.442517
     3  C   -0.001195   0.439225
     4  C   -0.002059  -0.844283
     5  C    0.002931   0.810143
     6  C   -0.000187   0.453130
     7  C   -0.001298   0.809945
     8  C   -0.001078  -0.879677
     9  C   -0.002315   0.798502
    10  C    0.003212  -0.762973
    11  C   -0.002543   0.575954
    12  C    0.001284   0.995558
    13  C    0.000960  -0.978948
    14  C    0.001007   1.090775
    15  C    0.000041  -1.081233
    16  C    0.000892   1.110925
    17  C    0.000762  -0.995600
    18  C   -0.000138   1.007118
    19  C    0.002912  -0.772611
    20  C    0.003320   0.831176
    21  C   -0.002721   0.427787
    22  C   -0.002906  -0.428601
    23  C    0.001045   0.946022
    24  C    0.001090  -1.045951
    25  C    0.000406   1.028878
    26  C    0.000901  -1.111877
    27  C    0.000064   1.062432
    28  C    0.000012  -1.064775
    29  C    0.001020  -0.951175
    30  C   -0.001298   0.809945
    31  C    0.002912  -0.772611
    32  C   -0.000138   1.007118
    33  C    0.000762  -0.995600
    34  C   -0.000187   0.453130
    35  C   -0.001878  -0.442517
    36  C   -0.002315   0.798502
    37  C   -0.001078  -0.879677
    38  C    0.003320   0.831176
    39  C   -0.002721   0.427787
    40  C   -0.002906  -0.428601
    41  C    0.001090  -1.045951
    42  C    0.000406   1.028878
    43  C    0.000901  -1.111877
    44  C    0.000892   1.110925
    45  C    0.000041  -1.081233
    46  C    0.002931   0.810143
    47  C   -0.002059  -0.844283
    48  C   -0.001195   0.439225
    49  C    0.003212  -0.762973
    50  C   -0.000047  -0.567497
    51  C   -0.002543   0.575954
    52  C    0.001020  -0.951175
    53  C    0.001284   0.995558
    54  C    0.000960  -0.978948
    55  C    0.001007   1.090775
    56  C    0.000012  -1.064775
    57  C    0.000064   1.062432
    58  C    0.001045   0.946022
    59  C   -0.000047  -0.567497
    60  C   -0.003496  -0.459853
 Sum of Mulliken charges =   0.00000  -0.00000

 Dipole moment (field-independent basis, Debye):
    X=             -0.0000    Y=             -0.0000    Z=             -0.0000  Tot=              0.0000
 Quadrupole moment (field-independent basis, Debye-Ang):
   XX=           -353.5680   YY=           -353.5270   ZZ=           -356.1571
   XY=             -1.3546   XZ=              0.0246   YZ=              0.5887

 Normal termination of Gaussian 16 at Thu May  5 18:55:54 2022.
