                         Program Version 5.0.0 -  RELEASE  -
|  1> ! BLYP cc-pVTZ NoRI pal8
|  2>
|  3> *xyz 0 1
|  4>   C   -2.58160084178652      0.85828318402722      0.00080156853200
|  5>   C   -1.19423075211164      0.86536269424988      0.00098054343823
|  6>   C   -0.48184821662044      2.06241189554032      0.00026969425476
|  7>   C   -1.19416423453283      3.25950055784776     -0.00062846767782
|  8>   C   -2.58153392669185      3.26665691565461     -0.00081697160061
|  9>   C   -3.26678503079028      2.06248916662553      0.00011048883372
| 10>   H   -3.12770213250513     -0.07395399173453      0.00130680306569
| 11>   H   -0.65977525765669     -0.07535746059244      0.00163025822144
| 12>   H   -0.65965646486742      4.20019103552288     -0.00124317258025
| 13>   H   -3.12758341376550      4.19892427265791     -0.00156478051965
| 14>   C   1.01725661812022      2.06237059889130      0.00078164411047
| 15>   C   1.72979440054537      2.06154569389869     -1.19627740111421
| 16>   C   1.72939598080617      2.06315592590829      1.19791401450705
| 17>   C   3.11712542600413      2.06150240870885     -1.20321779640295
| 18>   H   1.19530943085168      2.06092784488391     -2.13697707431363
| 19>   C   3.11678391264014      2.06312227056329      1.20519298930278
| 20>   H   1.19468583944535      2.06380338066680      2.13849130201270
| 21>   C   3.80213032469577      2.06229337795585      0.00112229842861
| 22>   H   3.66351142389813      2.06086028564820     -2.13528741294019
| 23>   H   3.66287659702490      2.06373408667386      2.13743659617327
| 24>   Cl  -5.00747133311841      2.06253716373157     -0.00043793949156
| 25>   Cl  5.54284890041484      2.06224511267023      0.00136880576014
| 26> **                         ****END OF INPUT****

CARTESIAN COORDINATES (ANGSTROEM)
---------------------------------
  C     -2.581601    0.858283    0.000802
  C     -1.194231    0.865363    0.000981
  C     -0.481848    2.062412    0.000270
  C     -1.194164    3.259501   -0.000628
  C     -2.581534    3.266657   -0.000817
  C     -3.266785    2.062489    0.000110
  H     -3.127702   -0.073954    0.001307
  H     -0.659775   -0.075357    0.001630
  H     -0.659656    4.200191   -0.001243
  H     -3.127583    4.198924   -0.001565
  C      1.017257    2.062371    0.000782
  C      1.729794    2.061546   -1.196277
  C      1.729396    2.063156    1.197914
  C      3.117125    2.061502   -1.203218
  H      1.195309    2.060928   -2.136977
  C      3.116784    2.063122    1.205193
  H      1.194686    2.063803    2.138491
  C      3.802130    2.062293    0.001122
  H      3.663511    2.060860   -2.135287
  H      3.662877    2.063734    2.137437
  Cl    -5.007471    2.062537   -0.000438
  Cl     5.542849    2.062245    0.001369

 Total Charge           Charge          ....    0
 Multiplicity           Mult            ....    1
 Number of Electrons    NEL             ....  114
 Basis Dimension        Dim             ....  540

ORBITAL ENERGIES
----------------

  NO   OCC          E(Eh)            E(eV)
   0   2.0000    -100.767945     -2742.0352
   1   2.0000    -100.767942     -2742.0351
   2   2.0000      -9.974231      -271.4126
   3   2.0000      -9.974228      -271.4125
   4   2.0000      -9.932835      -270.2862
   5   2.0000      -9.932658      -270.2814
   6   2.0000      -9.926443      -270.1122
   7   2.0000      -9.926442      -270.1122
   8   2.0000      -9.926429      -270.1119
   9   2.0000      -9.926424      -270.1117
  10   2.0000      -9.925471      -270.0858
  11   2.0000      -9.925468      -270.0857
  12   2.0000      -9.925466      -270.0857
  13   2.0000      -9.925461      -270.0855
  14   2.0000      -9.183814      -249.9043
  15   2.0000      -9.183811      -249.9042
  16   2.0000      -7.016945      -190.9408
  17   2.0000      -7.016941      -190.9407
  18   2.0000      -7.006865      -190.6665
  19   2.0000      -7.006861      -190.6664
  20   2.0000      -7.006255      -190.6499
  21   2.0000      -7.006251      -190.6498
  22   2.0000      -0.817716       -22.2512
  23   2.0000      -0.812753       -22.1161
  24   2.0000      -0.777023       -21.1439
  25   2.0000      -0.755340       -20.5539
  26   2.0000      -0.692160       -18.8346
  27   2.0000      -0.688473       -18.7343
  28   2.0000      -0.688471       -18.7342
  29   2.0000      -0.642353       -17.4793
  30   2.0000      -0.562854       -15.3160
  31   2.0000      -0.562846       -15.3158
  32   2.0000      -0.556821       -15.1519
  33   2.0000      -0.527630       -14.3576
  34   2.0000      -0.485206       -13.2031
  35   2.0000      -0.449615       -12.2346
  36   2.0000      -0.429321       -11.6824
  37   2.0000      -0.429321       -11.6824
  38   2.0000      -0.421083       -11.4582
  39   2.0000      -0.408193       -11.1075
  40   2.0000      -0.388141       -10.5619
  41   2.0000      -0.388135       -10.5617
  42   2.0000      -0.386965       -10.5299
  43   2.0000      -0.357113        -9.7175
  44   2.0000      -0.357112        -9.7175
  45   2.0000      -0.351789        -9.5727
  46   2.0000      -0.323257        -8.7963
  47   2.0000      -0.323250        -8.7961
  48   2.0000      -0.310562        -8.4508
  49   2.0000      -0.294166        -8.0047
  50   2.0000      -0.294162        -8.0045
  51   2.0000      -0.270977        -7.3737
  52   2.0000      -0.270977        -7.3736
  53   2.0000      -0.243773        -6.6334
  54   2.0000      -0.238496        -6.4898
  55   2.0000      -0.219298        -5.9674
  56   2.0000      -0.219296        -5.9674
  57   0.0000      -0.060308        -1.6411
  58   0.0000      -0.047767        -1.2998
  59   0.0000      -0.047767        -1.2998
  60   0.0000      -0.040982        -1.1152
  61   0.0000      -0.007051        -0.1919

MULLIKEN ATOMIC CHARGES
-----------------------
   0 C :   -0.097233
   1 C :   -0.083074
   2 C :    0.016740
   3 C :   -0.083089
   4 C :   -0.097216
   5 C :    0.073775
   6 H :    0.101319
   7 H :    0.091159
   8 H :    0.091161
   9 H :    0.101318
  10 C :    0.016750
  11 C :   -0.083089
  12 C :   -0.083103
  13 C :   -0.097222
  14 H :    0.091164
  15 C :   -0.097227
  16 H :    0.091168
  17 C :    0.073795
  18 H :    0.101321
  19 H :    0.101319
  20 Cl:   -0.114858
  21 Cl:   -0.114879
Sum of atomic charges:   -0.0000000

LOEWDIN ATOMIC CHARGES
----------------------
   0 C :    0.018027
   1 C :    0.051403
   2 C :   -0.037691
   3 C :    0.051403
   4 C :    0.018027
   5 C :   -0.298850
   6 H :   -0.027661
   7 H :   -0.024639
   8 H :   -0.024639
   9 H :   -0.027661
  10 C :   -0.037673
  11 C :    0.051417
  12 C :    0.051390
  13 C :    0.018021
  14 H :   -0.024645
  15 C :    0.018022
  16 H :   -0.024636
  17 C :   -0.298815
  18 H :   -0.027662
  19 H :   -0.027660
  20 Cl:    0.302278
  21 Cl:    0.302245

  Mayer bond orders larger than 0.100000
B(  0-C ,  1-C ) :   1.3425 B(  0-C ,  5-C ) :   1.3239 B(  0-C ,  6-H ) :   0.9721
B(  1-C ,  2-C ) :   1.3423 B(  1-C ,  7-H ) :   0.9762 B(  2-C ,  3-C ) :   1.3423
B(  2-C , 10-C ) :   0.9613 B(  3-C ,  4-C ) :   1.3425 B(  3-C ,  8-H ) :   0.9762
B(  4-C ,  5-C ) :   1.3239 B(  4-C ,  9-H ) :   0.9721 B(  5-C , 20-Cl) :   1.0024
B( 10-C , 11-C ) :   1.3421 B( 10-C , 12-C ) :   1.3424 B( 11-C , 13-C ) :   1.3426
B( 11-C , 14-H ) :   0.9762 B( 12-C , 15-C ) :   1.3424 B( 12-C , 16-H ) :   0.9762
B( 13-C , 17-C ) :   1.3238 B( 13-C , 18-H ) :   0.9721 B( 15-C , 17-C ) :   1.3240
B( 15-C , 19-H ) :   0.9721 B( 17-C , 21-Cl) :   1.0023

FINAL SINGLE POINT ENERGY     -1382.490465389404

DIPOLE MOMENT
-------------
                                X             Y             Z
Electronic contribution:     -0.00019      -0.00000       0.00009
Nuclear contribution   :      0.00013       0.00000      -0.00010
                        -----------------------------------------
Total Dipole Moment    :     -0.00006      -0.00000      -0.00002
                        -----------------------------------------
Magnitude (a.u.)       :      0.00007
Magnitude (Debye)      :      0.00017

Rotational constants in cm-1:     0.096140     0.005779     0.005779
Rotational constants in MHz :  2882.207816   173.250355   173.250260

                             ****ORCA TERMINATED NORMALLY****
TOTAL RUN TIME: 0 days 0 hours 4 minutes 2 seconds 557 msec
