                         Program Version 5.0.0 -  RELEASE  -
|  1> ! B3LYP/G cc-pVTZ TightSCF NoRI
|  2>
|  3> %pal
|  4>     nprocs 16
|  5> end
|  6>
|  7> %scf
|  8>     STABPerform true
|  9> end
| 10>
| 11> *xyz 2 1
| 12>  Fe                 6.20397196    1.03714637    0.17096759
| 13>  O                  8.02343961    0.99562593    0.15635557
| 14>  O                  6.24694430   -0.78162449    0.11972374
| 15>  O                  6.22607513    1.15774049   -1.64489818
| 16>  O                  4.38440248    1.01816527    0.20570458
| 17>  O                  6.16557932    2.85626904    0.21242489
| 18>  O                  6.16850601    1.06001114    1.99047834
| 19>  H                  4.06545864    1.78648828    0.68482314
| 20>  H                  4.08101507    0.21943896    0.64341723
| 21>  H                  6.97846238    3.18466572    0.60354733
| 22>  H                  5.41693185    3.14865831    0.73743487
| 23>  H                  6.90726982    0.55047930    2.33136739
| 24>  H                  5.34491271    0.67543823    2.29934360
| 25>  H                  8.36474659    1.75961228    0.62692374
| 26>  H                  8.32866067    0.19290442    0.58539903
| 27>  H                  7.07410906   -1.09285932    0.49459883
| 28>  H                  5.51267410   -1.13351772    0.62826915
| 29>  H                  6.97521418    0.66593956   -1.98916919
| 30>  H                  5.41263500    0.79176715   -1.99983292
| 31> *
| 32>
| 33>
| 34>                          ****END OF INPUT****

CARTESIAN COORDINATES (ANGSTROEM)
---------------------------------
  Fe     6.203972    1.037146    0.170968
  O      8.023440    0.995626    0.156356
  O      6.246944   -0.781624    0.119724
  O      6.226075    1.157740   -1.644898
  O      4.384402    1.018165    0.205705
  O      6.165579    2.856269    0.212425
  O      6.168506    1.060011    1.990478
  H      4.065459    1.786488    0.684823
  H      4.081015    0.219439    0.643417
  H      6.978462    3.184666    0.603547
  H      5.416932    3.148658    0.737435
  H      6.907270    0.550479    2.331367
  H      5.344913    0.675438    2.299344
  H      8.364747    1.759612    0.626924
  H      8.328661    0.192904    0.585399
  H      7.074109   -1.092859    0.494599
  H      5.512674   -1.133518    0.628269
  H      6.975214    0.665940   -1.989169
  H      5.412635    0.791767   -1.999833

 Total Charge           Charge          ....    2
 Multiplicity           Mult            ....    1
 Number of Electrons    NEL             ....   84
 Basis Dimension        Dim             ....  416

ORBITAL ENERGIES
----------------

  NO   OCC          E(Eh)            E(eV)
   0   2.0000    -256.322015     -6974.8766
   1   2.0000     -30.270735      -823.7086
   2   2.0000     -26.131913      -711.0855
   3   2.0000     -26.130343      -711.0428
   4   2.0000     -26.128818      -711.0013
   5   2.0000     -19.543931      -531.8174
   6   2.0000     -19.543603      -531.8085
   7   2.0000     -19.543288      -531.7999
   8   2.0000     -19.542946      -531.7906
   9   2.0000     -19.512849      -530.9716
  10   2.0000     -19.483194      -530.1647
  11   2.0000      -3.718368      -101.1820
  12   2.0000      -2.497235       -67.9532
  13   2.0000      -2.493646       -67.8555
  14   2.0000      -2.490493       -67.7698
  15   2.0000      -1.456969       -39.6462
  16   2.0000      -1.435451       -39.0606
  17   2.0000      -1.430707       -38.9315
  18   2.0000      -1.428624       -38.8748
  19   2.0000      -1.404786       -38.2262
  20   2.0000      -1.374697       -37.4074
  21   2.0000      -0.993648       -27.0385
  22   2.0000      -0.966467       -26.2989
  23   2.0000      -0.959875       -26.1195
  24   2.0000      -0.944775       -25.7086
  25   2.0000      -0.913511       -24.8579
  26   2.0000      -0.902914       -24.5695
  27   2.0000      -0.867837       -23.6151
  28   2.0000      -0.844141       -22.9702
  29   2.0000      -0.832064       -22.6416
  30   2.0000      -0.817590       -22.2478
  31   2.0000      -0.811929       -22.0937
  32   2.0000      -0.782249       -21.2861
  33   2.0000      -0.773326       -21.0433
  34   2.0000      -0.742616       -20.2076
  35   2.0000      -0.741324       -20.1724
  36   2.0000      -0.727535       -19.7972
  37   2.0000      -0.706491       -19.2246
  38   2.0000      -0.681904       -18.5555
  39   2.0000      -0.547395       -14.8954
  40   2.0000      -0.534007       -14.5311
  41   2.0000      -0.521869       -14.2008
  42   0.0000      -0.383025       -10.4226
  43   0.0000      -0.332818        -9.0564
  44   0.0000      -0.316077        -8.6009
  45   0.0000      -0.299002        -8.1363
  46   0.0000      -0.295214        -8.0332

MULLIKEN ATOMIC CHARGES
-----------------------
   0 Fe:    0.407639
   1 O :   -0.214451
   2 O :   -0.181686
   3 O :   -0.207504
   4 O :   -0.215568
   5 O :   -0.165106
   6 O :   -0.186052
   7 H :    0.237906
   8 H :    0.223005
   9 H :    0.225267
  10 H :    0.219827
  11 H :    0.234201
  12 H :    0.219184
  13 H :    0.245841
  14 H :    0.214992
  15 H :    0.217715
  16 H :    0.225851
  17 H :    0.248956
  18 H :    0.249985
Sum of atomic charges:    2.0000000

LOEWDIN ATOMIC CHARGES
----------------------
   0 Fe:   -0.723770
   1 O :    0.658718
   2 O :    0.655757
   3 O :    0.652851
   4 O :    0.660120
   5 O :    0.661097
   6 O :    0.641596
   7 H :   -0.095088
   8 H :   -0.106522
   9 H :   -0.097320
  10 H :   -0.102851
  11 H :   -0.101776
  12 H :   -0.108333
  13 H :   -0.090044
  14 H :   -0.111988
  15 H :   -0.108177
  16 H :   -0.102599
  17 H :   -0.092063
  18 H :   -0.089609

  Mayer bond orders larger than 0.100000
B(  0-Fe,  1-O ) :   0.4403 B(  0-Fe,  2-O ) :   0.4807 B(  0-Fe,  3-O ) :   0.4967
B(  0-Fe,  4-O ) :   0.4289 B(  0-Fe,  5-O ) :   0.4764 B(  0-Fe,  6-O ) :   0.5161
B(  1-O , 13-H ) :   0.9647 B(  1-O , 14-H ) :   0.9733 B(  2-O , 15-H ) :   0.9700
B(  2-O , 16-H ) :   0.9661 B(  3-O , 17-H ) :   0.9645 B(  3-O , 18-H ) :   0.9679
B(  4-O ,  7-H ) :   0.9645 B(  4-O ,  8-H ) :   0.9722 B(  5-O ,  9-H ) :   0.9835
B(  5-O , 10-H ) :   0.9793 B(  6-O , 11-H ) :   0.9532 B(  6-O , 12-H ) :   0.9528

FINAL SINGLE POINT ENERGY     -1721.918039397081

DIPOLE MOMENT
-------------
                                X             Y             Z
Electronic contribution:      0.00483       0.47979      -1.07235
Nuclear contribution   :      0.01944      -1.57275       3.19046
                        -----------------------------------------
Total Dipole Moment    :      0.02427      -1.09296       2.11811
                        -----------------------------------------
Magnitude (a.u.)       :      2.38360
Magnitude (Debye)      :      6.05863

Rotational constants in cm-1:     0.067502     0.065853     0.064678
Rotational constants in MHz :  2023.652591  1974.224213  1938.985718

                             ****ORCA TERMINATED NORMALLY****
TOTAL RUN TIME: 0 days 0 hours 11 minutes 57 seconds 951 msec
