                         Program Version 4.1.1  - RELEASE  -
|  1> ! BLYP opt miniprint nopop
|  2> * xyz 0 1
|  3>  C                  0.00000000    0.00000000    0.52887991
|  4>  H                  0.00000000    0.93775230    1.12379107
|  5>  O                  0.00000000    0.00000000   -0.67757652
|  6>  H                  0.00000000   -0.93775230    1.12379107
|  7> **                         ****END OF INPUT****
FINAL SINGLE POINT ENERGY      -114.386742552305
FINAL SINGLE POINT ENERGY      -114.387277237783
FINAL SINGLE POINT ENERGY      -114.387284303087
FINAL SINGLE POINT ENERGY      -114.387286082442
FINAL SINGLE POINT ENERGY      -114.387286276355
                    ***********************HURRAY********************

CARTESIAN COORDINATES (ANGSTROEM)
---------------------------------
  C     -0.000000   -0.000000    0.520838
  H      0.000000    0.951913    1.133920
  O      0.000000    0.000000   -0.689794
  H      0.000000   -0.951913    1.133920

ORBITAL ENERGIES
----------------

  NO   OCC          E(Eh)            E(eV)
   0   2.0000     -18.800875      -511.5978
   1   2.0000     -10.024300      -272.7751
   2   2.0000      -0.948829       -25.8190
   3   2.0000      -0.554598       -15.0914
   4   2.0000      -0.428558       -11.6617
   5   2.0000      -0.385699       -10.4954
   6   2.0000      -0.354701        -9.6519
   7   2.0000      -0.215840        -5.8733
   8   0.0000      -0.080213        -2.1827
   9   0.0000       0.043154         1.1743
  10   0.0000       0.107654         2.9294
  11   0.0000       0.170047         4.6272
  12   0.0000       0.409685        11.1481

Total SCF time: 0 days 0 hours 0 min 1 sec

FINAL SINGLE POINT ENERGY      -114.387286360139

DIPOLE MOMENT
-------------
                                X             Y             Z
Electronic contribution:     -0.00000      -0.00000      -1.51259
Nuclear contribution   :      0.00000      -0.00000       2.27453
                        -----------------------------------------
Total Dipole Moment    :     -0.00000      -0.00000       0.76194
                        -----------------------------------------
Magnitude (a.u.)       :      0.76194
Magnitude (Debye)      :      1.93670

Rotational constants in cm-1:     9.228088     1.271722     1.117693
Rotational constants in MHz : 276651.117784 38125.279335 33507.598538

                             ****ORCA TERMINATED NORMALLY****
TOTAL RUN TIME: 0 days 0 hours 0 minutes 19 seconds 550 msec
