                         Program Version 4.1.1  - RELEASE  -
|  1> ! B97-3c opt freq miniprint nopop noautostart
|  2> %maxcore 4000
|  3> %pal nprocs 36 end
|  4> * xyz 0 1
|  5>  C         0.569199       -0.976060       -1.047406
|  6>  C        -0.755106       -0.841493       -1.048084
|  7>  C        -1.621328       -0.379621        0.078494
|  8>  C         1.509612       -0.697833        0.080033
|  9>  H         1.033464       -1.307971       -1.970590
| 10>  H        -1.275957       -1.073355       -1.971671
| 11>  H        -2.152886        0.536805       -0.192184
| 12>  H        -2.385100       -1.125408        0.308784
| 13>  H        -1.074831       -0.182493        0.998712
| 14>  H         2.105412       -1.582884        0.312918
| 15>  H         2.216685        0.090920       -0.191142
| 16>  H         1.013162       -0.391758        0.998889
| 17> **                         ****END OF INPUT****
Dispersion correction           -0.017396075
FINAL SINGLE POINT ENERGY      -157.144305278950
Dispersion correction            ... done
Dispersion correction           -0.017384327
FINAL SINGLE POINT ENERGY      -157.144400532105
Dispersion correction            ... done
Dispersion correction           -0.017377471
FINAL SINGLE POINT ENERGY      -157.144416915206
Dispersion correction            ... done
Dispersion correction           -0.017375938
FINAL SINGLE POINT ENERGY      -157.144418660522
Dispersion correction            ... done
                    ***********************HURRAY********************

CARTESIAN COORDINATES (ANGSTROEM)
---------------------------------
  C      0.570494   -0.962548   -1.040412
  C     -0.753725   -0.827350   -1.041410
  C     -1.631363   -0.379308    0.076475
  C      1.518951   -0.702583    0.079227
  H      1.033641   -1.302983   -1.962330
  H     -1.274966   -1.067489   -1.963815
  H     -2.185249    0.520238   -0.201036
  H     -2.379265   -1.139128    0.312198
  H     -1.082998   -0.159902    0.988519
  H      2.104562   -1.595578    0.307076
  H      2.237585    0.073835   -0.192524
  H      1.024660   -0.388356    0.994787

ORBITAL ENERGIES
----------------

  NO   OCC          E(Eh)            E(eV)
   0   2.0000      -9.882932      -268.9282
   1   2.0000      -9.882386      -268.9134
   2   2.0000      -9.882286      -268.9107
   3   2.0000      -9.882187      -268.9080
   4   2.0000      -0.726127       -19.7589
   5   2.0000      -0.658357       -17.9148
   6   2.0000      -0.593190       -16.1415
   7   2.0000      -0.472306       -12.8521
   8   2.0000      -0.429118       -11.6769
   9   2.0000      -0.371876       -10.1193
  10   2.0000      -0.370075       -10.0703
  11   2.0000      -0.357129        -9.7180
  12   2.0000      -0.341900        -9.3036
  13   2.0000      -0.318663        -8.6713
  14   2.0000      -0.291703        -7.9376
  15   2.0000      -0.209330        -5.6961
  16   0.0000      -0.002122        -0.0577
  17   0.0000       0.034699         0.9442
  18   0.0000       0.060783         1.6540
  19   0.0000       0.066841         1.8188
  20   0.0000       0.100398         2.7320

Total SCF time: 0 days 0 hours 0 min 1 sec

Dispersion correction           -0.017374889
FINAL SINGLE POINT ENERGY      -157.144420282426

DIPOLE MOMENT
-------------
                                X             Y             Z
Electronic contribution:     -0.05222      -0.51854      -1.62458
Nuclear contribution   :      0.05563       0.54966       1.71522
                        -----------------------------------------
Total Dipole Moment    :      0.00342       0.03112       0.09065
                        -----------------------------------------
Magnitude (a.u.)       :      0.09590
Magnitude (Debye)      :      0.24375

Dispersion correction in the Hessian             ... done   (      0.3 sec)

VIBRATIONAL FREQUENCIES
-----------------------

Scaling factor for frequencies =  1.000000000  (already applied!)

   0:         0.00 cm**-1
   1:         0.00 cm**-1
   2:         0.00 cm**-1
   3:         0.00 cm**-1
   4:         0.00 cm**-1
   5:         0.00 cm**-1
   6:       121.11 cm**-1
   7:       142.55 cm**-1
   8:       287.62 cm**-1
   9:       390.58 cm**-1
  10:       572.36 cm**-1
  11:       682.27 cm**-1
  12:       864.41 cm**-1
  13:       978.50 cm**-1
  14:       986.40 cm**-1
  15:      1022.05 cm**-1
  16:      1054.45 cm**-1
  17:      1057.10 cm**-1
  18:      1156.40 cm**-1
  19:      1292.02 cm**-1
  20:      1391.93 cm**-1
  21:      1417.12 cm**-1
  22:      1439.18 cm**-1
  23:      1489.65 cm**-1
  24:      1493.27 cm**-1
  25:      1495.55 cm**-1
  26:      1501.88 cm**-1
  27:      1718.01 cm**-1
  28:      2981.55 cm**-1
  29:      2983.76 cm**-1
  30:      3023.60 cm**-1
  31:      3023.95 cm**-1
  32:      3059.60 cm**-1
  33:      3079.75 cm**-1
  34:      3083.91 cm**-1
  35:      3097.25 cm**-1

IR SPECTRUM
-----------

 Mode    freq (cm**-1)   T**2         TX         TY         TZ
-------------------------------------------------------------------
   6:       121.11    1.306566  (  0.109670   1.091171  -0.322310)
   7:       142.55    0.022552  (  0.013765  -0.145902   0.032783)
   8:       287.62    0.011358  ( -0.000705  -0.002384  -0.106543)
   9:       390.58    0.000053  (  0.000914   0.002324  -0.006828)
  10:       572.36    6.711506  ( -2.579318   0.242067   0.005490)
  11:       682.27   46.280867  (  0.687639   6.452684  -2.042275)
  12:       864.41    0.472740  (  0.026727   0.223049   0.649827)
  13:       978.50   17.701301  (  4.183079  -0.450565   0.011931)
  14:       986.40    0.310941  (  0.555640  -0.046859  -0.003049)
  15:      1022.05    0.571105  ( -0.013600  -0.257810  -0.710249)
  16:      1054.45    0.021867  (  0.112659  -0.086938   0.040208)
  17:      1057.10    3.238159  ( -0.145905  -1.700472   0.570321)
  18:      1156.40    0.832290  ( -0.906175   0.105524   0.000997)
  19:      1292.02    0.132811  (  0.005361   0.132139   0.339591)
  20:      1391.93    1.142868  (  1.064805  -0.095104  -0.003687)
  21:      1417.12    5.975919  ( -0.105660  -0.772008  -2.317058)
  22:      1439.18   11.876968  (  3.427423  -0.360185  -0.002207)
  23:      1489.65    0.018081  ( -0.076703   0.068036   0.086996)
  24:      1493.27   15.025260  (  0.201655   3.716014  -1.084359)
  25:      1495.55    5.423037  (  2.328599   0.023576  -0.010427)
  26:      1501.88    6.544047  ( -0.010214  -0.529203  -2.502776)
  27:      1718.01    6.369037  (  0.084445   0.750256   2.408116)
  28:      2981.55   58.340653  (  7.601523  -0.522841   0.533042)
  29:      2983.76   17.747724  (  0.882549  -1.662536  -3.768926)
  30:      3023.60   21.839591  (  0.131165   4.415682  -1.524512)
  31:      3023.95   34.997442  ( -0.746891  -5.536269   1.946617)
  32:      3059.60    0.506390  ( -0.704792   0.089699  -0.040165)
  33:      3079.75    0.932311  ( -0.888098  -0.075910  -0.371255)
  34:      3083.91   27.891166  (  5.198824  -0.684628  -0.628235)
  35:      3097.25   92.763593  (  0.582334   2.825864   9.189068)

--------------------------
THERMOCHEMISTRY AT 298.15K
--------------------------

Temperature         ... 298.15 K
Pressure            ... 1.00 atm
Total Mass          ... 56.11 AMU

Throughout the following assumptions are being made:
  (1) The electronic state is orbitally nondegenerate
  (2) There are no thermally accessible electronically excited states
  (3) Hindered rotations indicated by low frequency modes are not
      treated as such but are treated as vibrations and this may
      cause some error
  (4) All equations used are the standard statistical mechanics
      equations for an ideal gas
  (5) All vibrations are strictly harmonic

freq.     121.11  E(vib)   ...       0.44
freq.     142.55  E(vib)   ...       0.41
freq.     287.62  E(vib)   ...       0.27
freq.     390.58  E(vib)   ...       0.20
freq.     572.36  E(vib)   ...       0.11
freq.     682.27  E(vib)   ...       0.08
freq.     864.41  E(vib)   ...       0.04
freq.     978.50  E(vib)   ...       0.03
freq.     986.40  E(vib)   ...       0.02
freq.    1022.05  E(vib)   ...       0.02
freq.    1054.45  E(vib)   ...       0.02
freq.    1057.10  E(vib)   ...       0.02
freq.    1156.40  E(vib)   ...       0.01
freq.    1292.02  E(vib)   ...       0.01
freq.    1391.93  E(vib)   ...       0.00
freq.    1417.12  E(vib)   ...       0.00
freq.    1439.18  E(vib)   ...       0.00
freq.    1489.65  E(vib)   ...       0.00
freq.    1493.27  E(vib)   ...       0.00
freq.    1495.55  E(vib)   ...       0.00
freq.    1501.88  E(vib)   ...       0.00
freq.    1718.01  E(vib)   ...       0.00
freq.    2981.55  E(vib)   ...       0.00
freq.    2983.76  E(vib)   ...       0.00
freq.    3023.60  E(vib)   ...       0.00
freq.    3023.95  E(vib)   ...       0.00
freq.    3059.60  E(vib)   ...       0.00
freq.    3079.75  E(vib)   ...       0.00
freq.    3083.91  E(vib)   ...       0.00
freq.    3097.25  E(vib)   ...       0.00

------------
INNER ENERGY
------------

The inner energy is: U= E(el) + E(ZPE) + E(vib) + E(rot) + E(trans)
    E(el)   - is the total energy from the electronic structure calculation
              = E(kin-el) + E(nuc-el) + E(el-el) + E(nuc-nuc)
    E(ZPE)  - the the zero temperature vibrational energy from the frequency calculation
    E(vib)  - the the finite temperature correction to E(ZPE) due to population
              of excited vibrational states
    E(rot)  - is the rotational thermal energy
    E(trans)- is the translational thermal energy

Summary of contributions to the inner energy U:
Electronic energy                ...   -157.14442028 Eh
Zero point energy                ...      0.10681825 Eh      67.03 kcal/mol
Thermal vibrational correction   ...      0.00271009 Eh       1.70 kcal/mol
Thermal rotational correction    ...      0.00141627 Eh       0.89 kcal/mol
Thermal translational correction ...      0.00141627 Eh       0.89 kcal/mol
-----------------------------------------------------------------------
Total thermal energy                   -157.03205940 Eh

Summary of corrections to the electronic energy:
(perhaps to be used in another calculation)
Total thermal correction                  0.00554263 Eh       3.48 kcal/mol
Non-thermal (ZPE) correction              0.10681825 Eh      67.03 kcal/mol
-----------------------------------------------------------------------
Total correction                          0.11236088 Eh      70.51 kcal/mol

--------
ENTHALPY
--------

The enthalpy is H = U + kB*T
                kB is Boltzmann's constant
Total free energy                 ...   -157.03205940 Eh
Thermal Enthalpy correction       ...      0.00094421 Eh       0.59 kcal/mol
-----------------------------------------------------------------------
Total Enthalpy                    ...   -157.03111519 Eh

Note: Rotational entropy computed according to Herzberg
Infrared and Raman Spectra, Chapter V,1, Van Nostrand Reinhold, 1945
Point Group:  C1, Symmetry Number:   1
Rotational constants in cm-1:     0.552902     0.170064     0.136547

Vibrational entropy computed according to the QRRHO of S. Grimme
Chem.Eur.J. 2012 18 9955

-------
ENTROPY
-------

The entropy contributions are T*S = T*(S(el)+S(vib)+S(rot)+S(trans))
     S(el)   - electronic entropy
     S(vib)  - vibrational entropy
     S(rot)  - rotational entropy
     S(trans)- translational entropy
The entropies will be listed as mutliplied by the temperature to get
units of energy

Electronic entropy                ...      0.00000000 Eh      0.00 kcal/mol
Vibrational entropy               ...      0.00464043 Eh      2.91 kcal/mol
Rotational entropy                ...      0.01156688 Eh      7.26 kcal/mol
Translational entropy             ...      0.01805279 Eh     11.33 kcal/mol
-----------------------------------------------------------------------
Final entropy term                ...      0.03426010 Eh     21.50 kcal/mol

-------------------
GIBBS FREE ENTHALPY
-------------------

The Gibbs free enthalpy is G = H - T*S

Total enthalpy                    ...   -157.03111519 Eh
Total entropy correction          ...     -0.03426010 Eh    -21.50 kcal/mol
-----------------------------------------------------------------------
Final Gibbs free enthalpy         ...   -157.06537529 Eh

For completeness - the Gibbs free enthalpy minus the electronic energy
G-E(el)                           ...      0.07904499 Eh     49.60 kcal/mol

                             ****ORCA TERMINATED NORMALLY****
TOTAL RUN TIME: 0 days 0 hours 0 minutes 27 seconds 260 msec
