                         Program Version 5.0.1  -   Release   -
|  1> ! r2SCAN-3c optTS freq tightSCF noautostart miniprint nopop
|  2> %maxcore  1000
|  3> %pal nprocs   4 end
|  4> %geom Calc_Hess true end
|  5> * xyz   0   1
|  6> C -3.32752400 0.35254300 -0.71558500
|  7> C -2.65169100 -0.83506700 -0.03653200
|  8> H -3.43352200 1.18790500 -0.02483000
|  9> H -2.77847600 0.66592300 -1.60277700
| 10> H -2.61744700 -1.68312300 -0.73358100
| 11> H -3.24463200 -1.13776900 0.83468900
| 12> O -1.35450000 -0.46154000 0.35576200
| 13> H 4.28410900 0.72544700 -0.56159400
| 14> C 3.29265600 1.13509800 -0.47228300
| 15> C 2.89615100 2.43225000 -0.38194000
| 16> H 3.46045800 3.34892000 -0.37672300
| 17> C 1.10197600 1.14164000 -0.32362200
| 18> N 1.51315600 2.41530900 -0.29058000
| 19> N 2.16103600 0.33426300 -0.43804700
| 20> H 0.07096100 0.80503000 -0.22908000
| 21> C -1.08977800 -0.10564200 2.25470400
| 22> O 0.05841500 0.21381700 2.27422100
| 23> O -2.13359300 -0.30493000 2.76843400
| 24> Cl -5.01317300 -0.06117300 -1.28143400
| 25> C 0.64423400 3.57898900 -0.12064400
| 26> H 0.86520300 4.07037700 0.82751800
| 27> H 0.79221000 4.27782000 -0.94466200
| 28> H -0.39024800 3.24189200 -0.11325900
| 29> C 2.70219500 -1.98484600 1.30478700
| 30> H 2.65365000 -3.06813100 1.45161500
| 31> H 3.74642000 -1.67931500 1.42437400
| 32> H 2.10618200 -1.50766700 2.08653300
| 33> C 3.08280800 -2.14461300 -1.78527700
| 34> H 3.03461400 -3.23655000 -1.83504400
| 35> H 2.72281300 -1.75469600 -2.74052100
| 36> H 4.13546500 -1.86959100 -1.66849000
| 37> Si 2.02004200 -1.54285300 -0.37371600
| 38> O 0.46078000 -1.83446400 -0.62954300
| 39> H -0.33872000 -1.31876000 -0.17000500
| 40>  *
| 41>
| 42>                          ****END OF INPUT****
Dispersion correction           -0.013936854
FINAL SINGLE POINT ENERGY     -1513.215561187786
Dispersion correction            ...
Dispersion correction in the Hessian             ...
Dispersion correction           -0.013998842
FINAL SINGLE POINT ENERGY     -1513.216144477105
Dispersion correction            ... Starting D4
Dispersion correction           -0.014114160
FINAL SINGLE POINT ENERGY     -1513.216385789332
FINAL SINGLE POINT ENERGY     -1513.216536345604
FINAL SINGLE POINT ENERGY     -1513.216653168705
FINAL SINGLE POINT ENERGY     -1513.216648941277
FINAL SINGLE POINT ENERGY     -1513.216706176157
FINAL SINGLE POINT ENERGY     -1513.216768804633
FINAL SINGLE POINT ENERGY     -1513.216742822283
FINAL SINGLE POINT ENERGY     -1513.216710182601
FINAL SINGLE POINT ENERGY     -1513.216801309755
FINAL SINGLE POINT ENERGY     -1513.216803931838
FINAL SINGLE POINT ENERGY     -1513.216803187257
FINAL SINGLE POINT ENERGY     -1513.216806616687
FINAL SINGLE POINT ENERGY     -1513.216808555067
FINAL SINGLE POINT ENERGY     -1513.216805152838
FINAL SINGLE POINT ENERGY     -1513.216805728520
Dispersion correction           -0.014099152
FINAL SINGLE POINT ENERGY     -1513.216807584176
Dispersion correction            ... Starting D4
Dispersion correction           -0.014098490
FINAL SINGLE POINT ENERGY     -1513.216806567635
Dispersion correction            ...
                    ***********************HURRAY********************

CARTESIAN COORDINATES (ANGSTROEM)
---------------------------------
  C     -3.546165    0.235727   -0.433663
  C     -2.614069   -0.919921   -0.112283
  H     -3.638525    0.906397    0.424479
  H     -3.197277    0.790090   -1.309200
  H     -2.567722   -1.613440   -0.965862
  H     -3.003535   -1.471216    0.756506
  O     -1.338131   -0.383287    0.152333
  H      4.315154    0.633320   -0.119170
  C      3.338187    1.080922   -0.218995
  C      2.969539    2.387677   -0.143140
  H      3.545468    3.283289    0.031266
  C      1.169577    1.166147   -0.528814
  N      1.600969    2.419237   -0.343043
  N      2.204837    0.326808   -0.464657
  H      0.128946    0.870839   -0.642864
  C     -1.019045    0.107904    2.049674
  O      0.094651    0.528963    1.995848
  O     -2.028707   -0.161465    2.601003
  Cl    -5.224780   -0.368152   -0.822384
  C      0.742862    3.595890   -0.254160
  H      0.774288    4.000165    0.761563
  H      1.071154    4.356234   -0.968118
  H     -0.281424    3.298760   -0.484680
  C      2.613303   -1.974995    1.270205
  H      2.514010   -3.054016    1.432622
  H      3.669515   -1.714522    1.405014
  H      2.026268   -1.459767    2.037538
  C      3.105478   -2.149262   -1.776892
  H      3.076451   -3.243908   -1.812713
  H      2.781183   -1.775799   -2.753396
  H      4.148876   -1.853458   -1.618609
  Si     1.980153   -1.531014   -0.425809
  O      0.436641   -1.758242   -0.724035
  H     -0.415900   -1.159411   -0.262692

ORBITAL ENERGIES
----------------

  NO   OCC          E(Eh)            E(eV)
   0   2.0000    -101.181199     -2753.2804
   1   2.0000     -65.861427     -1792.1805
   2   2.0000     -18.954503      -515.7783
   3   2.0000     -18.952953      -515.7361
   4   2.0000     -18.912458      -514.6341
   5   2.0000     -18.898763      -514.2615
   6   2.0000     -14.281691      -388.6246
   7   2.0000     -14.239329      -387.4718
   8   2.0000     -10.164325      -276.5853
   9   2.0000     -10.142860      -276.0012
  10   2.0000     -10.120589      -275.3952
  11   2.0000     -10.114537      -275.2305
  12   2.0000     -10.111966      -275.1606
  13   2.0000     -10.069970      -274.0178
  14   2.0000     -10.054877      -273.6071
  15   2.0000     -10.020575      -272.6737
  16   2.0000     -10.015006      -272.5222
  17   2.0000      -9.336631      -254.0627
  18   2.0000      -7.083216      -192.7441
  19   2.0000      -7.072571      -192.4544
  20   2.0000      -7.072547      -192.4538
  21   2.0000      -5.219033      -142.0171
  22   2.0000      -3.565503       -97.0223
  23   2.0000      -3.559070       -96.8472
  24   2.0000      -3.558668       -96.8363
  25   2.0000      -1.052780       -28.6476
  26   2.0000      -1.051127       -28.6026
  27   2.0000      -0.997100       -27.1325
  28   2.0000      -0.935497       -25.4562
  29   2.0000      -0.924682       -25.1619
  30   2.0000      -0.891322       -24.2541
  31   2.0000      -0.787930       -21.4407
  32   2.0000      -0.781296       -21.2601
  33   2.0000      -0.740384       -20.1469
  34   2.0000      -0.680437       -18.5156
  35   2.0000      -0.657935       -17.9033
  36   2.0000      -0.657050       -17.8792
  37   2.0000      -0.634800       -17.2738
  38   2.0000      -0.605717       -16.4824
  39   2.0000      -0.567609       -15.4454
  40   2.0000      -0.553274       -15.0553
  41   2.0000      -0.494974       -13.4689
  42   2.0000      -0.487835       -13.2747
  43   2.0000      -0.474593       -12.9143
  44   2.0000      -0.469954       -12.7881
  45   2.0000      -0.464519       -12.6402
  46   2.0000      -0.449133       -12.2215
  47   2.0000      -0.446264       -12.1434
  48   2.0000      -0.438733       -11.9385
  49   2.0000      -0.428788       -11.6679
  50   2.0000      -0.418249       -11.3811
  51   2.0000      -0.415497       -11.3062
  52   2.0000      -0.410306       -11.1650
  53   2.0000      -0.409602       -11.1458
  54   2.0000      -0.390699       -10.6315
  55   2.0000      -0.386165       -10.5081
  56   2.0000      -0.374687       -10.1957
  57   2.0000      -0.371539       -10.1101
  58   2.0000      -0.370755       -10.0887
  59   2.0000      -0.367090        -9.9890
  60   2.0000      -0.346502        -9.4288
  61   2.0000      -0.331409        -9.0181
  62   2.0000      -0.325233        -8.8500
  63   2.0000      -0.321433        -8.7466
  64   2.0000      -0.298209        -8.1147
  65   2.0000      -0.279426        -7.6036
  66   2.0000      -0.276024        -7.5110
  67   2.0000      -0.273280        -7.4363
  68   2.0000      -0.260026        -7.0757
  69   2.0000      -0.256491        -6.9795
  70   2.0000      -0.248185        -6.7535
  71   2.0000      -0.246672        -6.7123
  72   2.0000      -0.219641        -5.9767
  73   2.0000      -0.213596        -5.8122
  74   0.0000      -0.059115        -1.6086
  75   0.0000      -0.042307        -1.1512
  76   0.0000       0.010680         0.2906
  77   0.0000       0.033781         0.9192
  78   0.0000       0.038080         1.0362

Total SCF time: 0 days 0 hours 0 min 10 sec

Dispersion correction           -0.014098441
FINAL SINGLE POINT ENERGY     -1513.216806473186

DIPOLE MOMENT
-------------
                                X             Y             Z
Electronic contribution:    -18.59540       1.02490       2.03254
Nuclear contribution   :     22.22545       1.45901      -2.96849
                        -----------------------------------------
Total Dipole Moment    :      3.63005       2.48390      -0.93594
                        -----------------------------------------
Magnitude (a.u.)       :      4.49700
Magnitude (Debye)      :     11.43047

Dispersion correction in the Hessian             ...

VIBRATIONAL FREQUENCIES
-----------------------

Scaling factor for frequencies =  1.000000000  (already applied!)

   0:         0.00 cm**-1
   1:         0.00 cm**-1
   2:         0.00 cm**-1
   3:         0.00 cm**-1
   4:         0.00 cm**-1
   5:         0.00 cm**-1
   6:      -263.81 cm**-1 ***imaginary mode***
   7:        19.03 cm**-1
   8:        23.78 cm**-1
   9:        36.35 cm**-1
  10:        44.41 cm**-1
  11:        51.59 cm**-1
  12:        61.54 cm**-1
  13:        71.97 cm**-1
  14:        80.01 cm**-1
  15:        83.42 cm**-1
  16:       105.84 cm**-1
  17:       118.42 cm**-1
  18:       120.47 cm**-1
  19:       138.68 cm**-1
  20:       158.85 cm**-1
  21:       183.35 cm**-1
  22:       190.17 cm**-1
  23:       209.62 cm**-1
  24:       241.29 cm**-1
  25:       248.12 cm**-1
  26:       254.61 cm**-1
  27:       267.16 cm**-1
  28:       303.94 cm**-1
  29:       324.42 cm**-1
  30:       363.36 cm**-1
  31:       368.65 cm**-1
  32:       411.64 cm**-1
  33:       509.96 cm**-1
  34:       614.35 cm**-1
  35:       628.35 cm**-1
  36:       657.88 cm**-1
  37:       659.68 cm**-1
  38:       690.83 cm**-1
  39:       691.06 cm**-1
  40:       694.25 cm**-1
  41:       722.68 cm**-1
  42:       726.28 cm**-1
  43:       742.95 cm**-1
  44:       787.85 cm**-1
  45:       789.80 cm**-1
  46:       808.42 cm**-1
  47:       833.01 cm**-1
  48:       846.01 cm**-1
  49:       894.50 cm**-1
  50:       998.74 cm**-1
  51:      1029.23 cm**-1
  52:      1045.04 cm**-1
  53:      1060.30 cm**-1
  54:      1064.03 cm**-1
  55:      1090.54 cm**-1
  56:      1098.71 cm**-1
  57:      1122.38 cm**-1
  58:      1139.55 cm**-1
  59:      1146.69 cm**-1
  60:      1157.21 cm**-1
  61:      1205.28 cm**-1
  62:      1247.49 cm**-1
  63:      1270.15 cm**-1
  64:      1278.53 cm**-1
  65:      1283.74 cm**-1
  66:      1302.34 cm**-1
  67:      1309.12 cm**-1
  68:      1314.79 cm**-1
  69:      1329.33 cm**-1
  70:      1368.43 cm**-1
  71:      1406.15 cm**-1
  72:      1421.10 cm**-1
  73:      1439.73 cm**-1
  74:      1443.63 cm**-1
  75:      1449.51 cm**-1
  76:      1451.21 cm**-1
  77:      1459.20 cm**-1
  78:      1472.51 cm**-1
  79:      1477.24 cm**-1
  80:      1494.85 cm**-1
  81:      1503.92 cm**-1
  82:      1523.72 cm**-1
  83:      1566.38 cm**-1
  84:      1589.30 cm**-1
  85:      2195.32 cm**-1
  86:      2982.20 cm**-1
  87:      3014.58 cm**-1
  88:      3016.74 cm**-1
  89:      3031.85 cm**-1
  90:      3036.51 cm**-1
  91:      3058.63 cm**-1
  92:      3103.47 cm**-1
  93:      3106.14 cm**-1
  94:      3118.21 cm**-1
  95:      3119.75 cm**-1
  96:      3122.66 cm**-1
  97:      3134.66 cm**-1
  98:      3150.68 cm**-1
  99:      3159.48 cm**-1
 100:      3261.99 cm**-1
 101:      3280.50 cm**-1

IR SPECTRUM
-----------

 Mode   freq       eps      Int      T**2         TX        TY        TZ
       cm**-1   L/(mol*cm) km/mol    a.u.
----------------------------------------------------------------------------
  7:     19.03   0.000296    1.50  0.004858  ( 0.006790 -0.036617  0.058914)
  8:     23.78   0.000095    0.48  0.001249  ( 0.007917  0.034192  0.004093)
  9:     36.35   0.000509    2.57  0.004374  (-0.058835 -0.018738  0.023684)
 10:     44.41   0.000161    0.82  0.001134  ( 0.014249  0.030506 -0.000843)
 11:     51.59   0.000222    1.12  0.001344  (-0.007692  0.027597 -0.022869)
 12:     61.54   0.000272    1.38  0.001381  (-0.001696 -0.002775  0.037018)
 13:     71.97   0.001049    5.30  0.004550  (-0.040376  0.027295  0.046635)
 14:     80.01   0.000224    1.13  0.000873  ( 0.014174  0.005722 -0.025292)
 15:     83.42   0.000613    3.10  0.002294  ( 0.021053  0.003906 -0.042838)
 16:    105.84   0.000797    4.03  0.002351  ( 0.025215 -0.023656 -0.033994)
 17:    118.42   0.001599    8.08  0.004214  ( 0.035941 -0.024810 -0.048024)
 18:    120.47   0.000714    3.61  0.001850  (-0.004058 -0.032653  0.027695)
 19:    138.68   0.000062    0.31  0.000139  ( 0.003958 -0.011085 -0.000657)
 20:    158.85   0.000172    0.87  0.000337  ( 0.014332 -0.002002 -0.011302)
 21:    183.35   0.002049   10.36  0.003488  ( 0.042683 -0.019666 -0.035766)
 22:    190.17   0.000310    1.57  0.000509  ( 0.016308  0.007026 -0.013917)
 23:    209.62   0.001463    7.39  0.002177  (-0.040946  0.021063  0.007549)
 24:    241.29   0.002937   14.84  0.003798  (-0.045984 -0.017015  0.037338)
 25:    248.12   0.002619   13.23  0.003294  ( 0.006570  0.007078  0.056572)
 26:    254.61   0.020701  104.61  0.025373  (-0.148821  0.036504  0.043502)
 27:    267.16   0.004626   23.38  0.005404  ( 0.044700 -0.049243 -0.031318)
 28:    303.94   0.005065   25.60  0.005201  ( 0.007443 -0.009010 -0.071164)
 29:    324.42   0.003365   17.01  0.003237  ( 0.056145  0.007662 -0.005077)
 30:    363.36   0.010265   51.87  0.008816  (-0.083434 -0.023388 -0.036158)
 31:    368.65   0.005732   28.97  0.004852  (-0.031185  0.057845 -0.023106)
 32:    411.64   0.003059   15.46  0.002319  ( 0.027986  0.039079 -0.002974)
 33:    509.96   0.041911  211.80  0.025647  (-0.109562  0.064799  0.097181)
 34:    614.35   0.017093   86.38  0.008682  (-0.021011 -0.049967 -0.075790)
 35:    628.35   0.001751    8.85  0.000870  (-0.002673 -0.012062  0.026775)
 36:    657.88   0.014166   71.59  0.006720  (-0.065985  0.036256 -0.032420)
 37:    659.68   0.004229   21.37  0.002001  ( 0.017724  0.008181 -0.040243)
 38:    690.83   0.003529   17.83  0.001594  (-0.010720 -0.038459  0.000405)
 39:    691.06   0.001952    9.86  0.000881  (-0.013540  0.026393  0.001248)
 40:    694.25   0.001887    9.54  0.000848  (-0.019152  0.021933 -0.000558)
 41:    722.68   0.056255  284.29  0.024292  ( 0.155206 -0.009848  0.010301)
 42:    726.28   0.007538   38.09  0.003239  ( 0.000255  0.003970 -0.056771)
 43:    742.95   0.001593    8.05  0.000669  ( 0.024514 -0.000318 -0.008257)
 44:    787.85   0.013207   66.74  0.005231  (-0.067949 -0.006654 -0.023872)
 45:    789.80   0.027736  140.16  0.010959  (-0.098717 -0.018365 -0.029604)
 46:    808.42   0.025969  131.24  0.010024  (-0.041007 -0.016948  0.089753)
 47:    833.01   0.000390    1.97  0.000146  (-0.001371 -0.001944  0.011850)
 48:    846.01   0.026665  134.75  0.009836  ( 0.052003 -0.084214 -0.006276)
 49:    894.50   0.005179   26.17  0.001807  (-0.012432  0.035441 -0.019906)
 50:    998.74   0.009814   49.60  0.003067  (-0.014847  0.053248  0.003292)
 51:   1029.23   0.222192  1122.87  0.067369  ( 0.253663 -0.050981 -0.020604)
 52:   1045.04   0.037142  187.70  0.011091  (-0.104781  0.000010  0.010596)
 53:   1060.30   0.009110   46.04  0.002681  (-0.051666 -0.002849 -0.001896)
 54:   1064.03   0.001571    7.94  0.000461  ( 0.012984  0.008050  0.015080)
 55:   1090.54   0.003679   18.59  0.001053  (-0.027838 -0.003819  0.016221)
 56:   1098.71   0.002296   11.60  0.000652  ( 0.007491  0.021001  0.012446)
 57:   1122.38   0.010553   53.33  0.002934  ( 0.041133 -0.032221 -0.014286)
 58:   1139.55   0.019939  100.76  0.005460  ( 0.033529  0.064138 -0.014911)
 59:   1146.69   0.002031   10.26  0.000553  ( 0.015609 -0.015938 -0.007411)
 60:   1157.21   0.118153  597.09  0.031862  (-0.130884  0.109656  0.052026)
 61:   1205.28   0.002310   11.67  0.000598  ( 0.022009 -0.006557 -0.008408)
 62:   1247.49   0.162033  818.85  0.040533  (-0.154077  0.080086  0.101880)
 63:   1270.15   0.008787   44.41  0.002159  (-0.040303 -0.015362 -0.017281)
 64:   1278.53   0.008808   44.51  0.002150  (-0.012713  0.005748 -0.044218)
 65:   1283.74   0.008636   43.64  0.002099  (-0.041595  0.018299  0.005854)
 66:   1302.34   0.013165   66.53  0.003155  ( 0.047894 -0.029246 -0.002331)
 67:   1309.12   0.001224    6.18  0.000292  ( 0.014304  0.002839  0.008890)
 68:   1314.79   0.002477   12.52  0.000588  ( 0.015973  0.011479  0.014175)
 69:   1329.33   0.116292  587.69  0.027300  (-0.156488  0.052049  0.010111)
 70:   1368.43   0.002896   14.64  0.000661  (-0.024921  0.006260  0.000516)
 71:   1406.15   0.009507   48.05  0.002110  ( 0.036579 -0.025234 -0.011626)
 72:   1421.10   0.055724  281.60  0.012236  (-0.100828  0.035807  0.028071)
 73:   1439.73   0.000898    4.54  0.000195  ( 0.012643 -0.005891  0.000378)
 74:   1443.63   0.000790    3.99  0.000171  ( 0.012774  0.000462  0.002715)
 75:   1449.51   0.000499    2.52  0.000107  ( 0.005350  0.001179 -0.008793)
 76:   1451.21   0.009476   47.89  0.002038  ( 0.032557 -0.030526 -0.006776)
 77:   1459.20   0.005743   29.03  0.001228  (-0.034732  0.000578  0.004654)
 78:   1472.51   0.001749    8.84  0.000371  ( 0.017067 -0.003337  0.008259)
 79:   1477.24   0.003097   15.65  0.000654  (-0.009400 -0.004097  0.023432)
 80:   1494.85   0.014923   75.41  0.003115  ( 0.053999 -0.007398 -0.012026)
 81:   1503.92   0.008141   41.14  0.001689  (-0.040231 -0.008407 -0.000184)
 82:   1523.72   0.034414  173.92  0.007048  ( 0.083712 -0.004943 -0.004014)
 83:   1566.38   0.021930  110.83  0.004369  (-0.044067  0.048782  0.006888)
 84:   1589.30   0.006689   33.80  0.001313  ( 0.003326 -0.035845 -0.004174)
 85:   2195.32   0.155741  787.05  0.022139  (-0.138267 -0.033979  0.043199)
 86:   2982.20   0.007470   37.75  0.000782  (-0.012533 -0.023172 -0.009361)
 87:   3014.58   0.000366    1.85  0.000038  (-0.005435  0.002258 -0.001803)
 88:   3016.74   0.000789    3.99  0.000082  (-0.008926  0.000570  0.001275)
 89:   3031.85   0.001866    9.43  0.000192  (-0.005970  0.000132  0.012508)
 90:   3036.51   0.003865   19.53  0.000397  ( 0.006430 -0.018850  0.000756)
 91:   3058.63   0.004439   22.43  0.000453  ( 0.012660  0.016856 -0.002910)
 92:   3103.47   0.000007    0.04  0.000001  ( 0.000499  0.000441 -0.000531)
 93:   3106.14   0.002189   11.06  0.000220  ( 0.011086  0.009691  0.001765)
 94:   3118.21   0.000765    3.87  0.000077  (-0.005224  0.004107 -0.005691)
 95:   3119.75   0.000116    0.59  0.000012  ( 0.002750 -0.001914 -0.000640)
 96:   3122.66   0.000580    2.93  0.000058  ( 0.001467  0.003497 -0.006598)
 97:   3134.66   0.001232    6.23  0.000123  (-0.003740 -0.000430  0.010417)
 98:   3150.68   0.001694    8.56  0.000168  ( 0.010888  0.006943 -0.001011)
 99:   3159.48   0.052405  264.83  0.005176  (-0.065941 -0.026682  0.010767)
100:   3261.99   0.000886    4.48  0.000085  ( 0.001488 -0.009070 -0.000574)
101:   3280.50   0.000232    1.17  0.000022  (-0.004173 -0.001660 -0.001370)

--------------------------
THERMOCHEMISTRY AT 298.15K
--------------------------

Temperature         ... 298.15 K
Pressure            ... 1.00 atm
Total Mass          ... 280.78 AMU

Throughout the following assumptions are being made:
  (1) The electronic state is orbitally nondegenerate
  (2) There are no thermally accessible electronically excited states
  (3) Hindered rotations indicated by low frequency modes are not
      treated as such but are treated as vibrations and this may
      cause some error
  (4) All equations used are the standard statistical mechanics
      equations for an ideal gas
  (5) All vibrations are strictly harmonic

freq.      19.03  E(vib)   ...       0.57
freq.      23.78  E(vib)   ...       0.56
freq.      36.35  E(vib)   ...       0.54
freq.      44.41  E(vib)   ...       0.53
freq.      51.59  E(vib)   ...       0.52
freq.      61.54  E(vib)   ...       0.51
freq.      71.97  E(vib)   ...       0.50
freq.      80.01  E(vib)   ...       0.49
freq.      83.42  E(vib)   ...       0.48
freq.     105.84  E(vib)   ...       0.45
freq.     118.42  E(vib)   ...       0.44
freq.     120.47  E(vib)   ...       0.44
freq.     138.68  E(vib)   ...       0.42
freq.     158.85  E(vib)   ...       0.39
freq.     183.35  E(vib)   ...       0.37
freq.     190.17  E(vib)   ...       0.36
freq.     209.62  E(vib)   ...       0.34
freq.     241.29  E(vib)   ...       0.31
freq.     248.12  E(vib)   ...       0.31
freq.     254.61  E(vib)   ...       0.30
freq.     267.16  E(vib)   ...       0.29
freq.     303.94  E(vib)   ...       0.26
freq.     324.42  E(vib)   ...       0.25
freq.     363.36  E(vib)   ...       0.22
freq.     368.65  E(vib)   ...       0.21
freq.     411.64  E(vib)   ...       0.19
freq.     509.96  E(vib)   ...       0.14
freq.     614.35  E(vib)   ...       0.10
freq.     628.35  E(vib)   ...       0.09
freq.     657.88  E(vib)   ...       0.08
freq.     659.68  E(vib)   ...       0.08
freq.     690.83  E(vib)   ...       0.07
freq.     691.06  E(vib)   ...       0.07
freq.     694.25  E(vib)   ...       0.07
freq.     722.68  E(vib)   ...       0.07
freq.     726.28  E(vib)   ...       0.06
freq.     742.95  E(vib)   ...       0.06
freq.     787.85  E(vib)   ...       0.05
freq.     789.80  E(vib)   ...       0.05
freq.     808.42  E(vib)   ...       0.05
freq.     833.01  E(vib)   ...       0.04
freq.     846.01  E(vib)   ...       0.04
freq.     894.50  E(vib)   ...       0.03
freq.     998.74  E(vib)   ...       0.02
freq.    1029.23  E(vib)   ...       0.02
freq.    1045.04  E(vib)   ...       0.02
freq.    1060.30  E(vib)   ...       0.02
freq.    1064.03  E(vib)   ...       0.02
freq.    1090.54  E(vib)   ...       0.02
freq.    1098.71  E(vib)   ...       0.02
freq.    1122.38  E(vib)   ...       0.01
freq.    1139.55  E(vib)   ...       0.01
freq.    1146.69  E(vib)   ...       0.01
freq.    1157.21  E(vib)   ...       0.01
freq.    1205.28  E(vib)   ...       0.01
freq.    1247.49  E(vib)   ...       0.01
freq.    1270.15  E(vib)   ...       0.01
freq.    1278.53  E(vib)   ...       0.01
freq.    1283.74  E(vib)   ...       0.01
freq.    1302.34  E(vib)   ...       0.01
freq.    1309.12  E(vib)   ...       0.01
freq.    1314.79  E(vib)   ...       0.01
freq.    1329.33  E(vib)   ...       0.01
freq.    1368.43  E(vib)   ...       0.01
freq.    1406.15  E(vib)   ...       0.00
freq.    1421.10  E(vib)   ...       0.00
freq.    1439.73  E(vib)   ...       0.00
freq.    1443.63  E(vib)   ...       0.00
freq.    1449.51  E(vib)   ...       0.00
freq.    1451.21  E(vib)   ...       0.00
freq.    1459.20  E(vib)   ...       0.00
freq.    1472.51  E(vib)   ...       0.00
freq.    1477.24  E(vib)   ...       0.00
freq.    1494.85  E(vib)   ...       0.00
freq.    1503.92  E(vib)   ...       0.00
freq.    1523.72  E(vib)   ...       0.00
freq.    1566.38  E(vib)   ...       0.00
freq.    1589.30  E(vib)   ...       0.00
freq.    2195.32  E(vib)   ...       0.00
freq.    2982.20  E(vib)   ...       0.00
freq.    3014.58  E(vib)   ...       0.00
freq.    3016.74  E(vib)   ...       0.00
freq.    3031.85  E(vib)   ...       0.00
freq.    3036.51  E(vib)   ...       0.00
freq.    3058.63  E(vib)   ...       0.00
freq.    3103.47  E(vib)   ...       0.00
freq.    3106.14  E(vib)   ...       0.00
freq.    3118.21  E(vib)   ...       0.00
freq.    3119.75  E(vib)   ...       0.00
freq.    3122.66  E(vib)   ...       0.00
freq.    3134.66  E(vib)   ...       0.00
freq.    3150.68  E(vib)   ...       0.00
freq.    3159.48  E(vib)   ...       0.00
freq.    3261.99  E(vib)   ...       0.00
freq.    3280.50  E(vib)   ...       0.00

------------
INNER ENERGY
------------

The inner energy is: U= E(el) + E(ZPE) + E(vib) + E(rot) + E(trans)
    E(el)   - is the total energy from the electronic structure calculation
              = E(kin-el) + E(nuc-el) + E(el-el) + E(nuc-nuc)
    E(ZPE)  - the the zero temperature vibrational energy from the frequency calculation
    E(vib)  - the the finite temperature correction to E(ZPE) due to population
              of excited vibrational states
    E(rot)  - is the rotational thermal energy
    E(trans)- is the translational thermal energy

Summary of contributions to the inner energy U:
Electronic energy                ...  -1513.21680647 Eh
Zero point energy                ...      0.26023964 Eh     163.30 kcal/mol
Thermal vibrational correction   ...      0.01866425 Eh      11.71 kcal/mol
Thermal rotational correction    ...      0.00141627 Eh       0.89 kcal/mol
Thermal translational correction ...      0.00141627 Eh       0.89 kcal/mol
-----------------------------------------------------------------------
Total thermal energy                  -1512.93507005 Eh

Summary of corrections to the electronic energy:
(perhaps to be used in another calculation)
Total thermal correction                  0.02149679 Eh      13.49 kcal/mol
Non-thermal (ZPE) correction              0.26023964 Eh     163.30 kcal/mol
-----------------------------------------------------------------------
Total correction                          0.28173642 Eh     176.79 kcal/mol

--------
ENTHALPY
--------

The enthalpy is H = U + kB*T
                kB is Boltzmann's constant
Total free energy                 ...  -1512.93507005 Eh
Thermal Enthalpy correction       ...      0.00094421 Eh       0.59 kcal/mol
-----------------------------------------------------------------------
Total Enthalpy                    ...  -1512.93412584 Eh

Note: Only C1 symmetry has been detected, increase convergence thresholds
      if your molecule has a higher symmetry. Symmetry factor of 1.0 is
      used for the rotational entropy correction.

Rotational constants in cm-1:     0.016416     0.006819     0.006027

                             ****ORCA TERMINATED NORMALLY****
TOTAL RUN TIME: 0 days 0 hours 51 minutes 48 seconds 650 msec
