                         Program Version 5.0.0 -  RELEASE  -
|  1> ! B3LYP/G def2-SVP NoRI VeryTightSCF Opt Freq
|  2>
|  3> %pal
|  4>     nprocs  16
|  5> end
|  6>
|  7> %geom
|  8>     maxIter 500
|  9> end
| 10>
| 11> *xyz 2 1
| 12>  Fe                 6.20397196    1.03714637    0.17096759
| 13>  O                  8.02343961    0.99562593    0.15635557
| 14>  O                  6.24694430   -0.78162449    0.11972374
| 15>  O                  6.22607513    1.15774049   -1.64489818
| 16>  O                  4.38440248    1.01816527    0.20570458
| 17>  O                  6.16557932    2.85626904    0.21242489
| 18>  O                  6.16850601    1.06001114    1.99047834
| 19>  H                  4.06545864    1.78648828    0.68482314
| 20>  H                  4.08101507    0.21943896    0.64341723
| 21>  H                  6.97846238    3.18466572    0.60354733
| 22>  H                  5.41693185    3.14865831    0.73743487
| 23>  H                  6.90726982    0.55047930    2.33136739
| 24>  H                  5.34491271    0.67543823    2.29934360
| 25>  H                  8.36474659    1.75961228    0.62692374
| 26>  H                  8.32866067    0.19290442    0.58539903
| 27>  H                  7.07410906   -1.09285932    0.49459883
| 28>  H                  5.51267410   -1.13351772    0.62826915
| 29>  H                  6.97521418    0.66593956   -1.98916919
| 30>  H                  5.41263500    0.79176715   -1.99983292
| 31> *
| 32>
| 33>
| 34>                          ****END OF INPUT****
 Total Charge           Charge          ....    2
 Multiplicity           Mult            ....    1
 Number of Electrons    NEL             ....   84
FINAL SINGLE POINT ENERGY     -1721.165961670329
FINAL SINGLE POINT ENERGY     -1721.216844594747
FINAL SINGLE POINT ENERGY     -1721.255223011400
FINAL SINGLE POINT ENERGY     -1721.278743708234
FINAL SINGLE POINT ENERGY     -1721.290462244440
FINAL SINGLE POINT ENERGY     -1721.295643930365
FINAL SINGLE POINT ENERGY     -1721.298434454866
FINAL SINGLE POINT ENERGY     -1721.300217470888
FINAL SINGLE POINT ENERGY     -1721.301518308030
FINAL SINGLE POINT ENERGY     -1721.302708262710
FINAL SINGLE POINT ENERGY     -1721.322694266683
FINAL SINGLE POINT ENERGY     -1721.322700813059
FINAL SINGLE POINT ENERGY     -1721.322707652367
FINAL SINGLE POINT ENERGY     -1721.322713557810
FINAL SINGLE POINT ENERGY     -1721.322718075479
FINAL SINGLE POINT ENERGY     -1721.322721200137
FINAL SINGLE POINT ENERGY     -1721.322723299682
FINAL SINGLE POINT ENERGY     -1721.322724706182
FINAL SINGLE POINT ENERGY     -1721.322725666076
                    ***********************HURRAY********************

CARTESIAN COORDINATES (ANGSTROEM)
---------------------------------
  Fe     6.204312    0.952711    0.360750
  O      8.223269    0.964493    0.386638
  O      6.322524   -1.061621    0.295876
  O      6.300129    1.114331   -1.649124
  O      4.185300    0.939473    0.336799
  O      6.086471    2.967300    0.426227
  O      6.108600    0.790139    2.370871
  H      3.662129    1.752081    0.243748
  H      3.588227    0.186341    0.204206
  H      6.246523    3.516976   -0.358153
  H      6.173435    3.536981    1.206999
  H      6.843611    0.875664    2.998766
  H      5.282025    0.895251    2.869268
  H      8.821132    1.717329    0.516950
  H      8.745157    0.150852    0.477113
  H      6.233623   -1.630737   -0.485131
  H      6.163511   -1.612349    1.079768
  H      7.126274    1.008477   -2.148095
  H      5.564758    1.028661   -2.276597

 Multiplicity           Mult            ....    1
 Number of Electrons    NEL             ....   84
 Basis Dimension        Dim             ....  175

ORBITAL ENERGIES
----------------

  NO   OCC          E(Eh)            E(eV)
   0   2.0000    -256.363642     -6976.0093
   1   2.0000     -30.309735      -824.7698
   2   2.0000     -26.180908      -712.4187
   3   2.0000     -26.180807      -712.4160
   4   2.0000     -26.180391      -712.4046
   5   2.0000     -19.483416      -530.1707
   6   2.0000     -19.483344      -530.1688
   7   2.0000     -19.483305      -530.1677
   8   2.0000     -19.483157      -530.1636
   9   2.0000     -19.482773      -530.1532
  10   2.0000     -19.482663      -530.1502
  11   2.0000      -3.717884      -101.1688
  12   2.0000      -2.491271       -67.7909
  13   2.0000      -2.490986       -67.7832
  14   2.0000      -2.489574       -67.7448
  15   2.0000      -1.343321       -36.5536
  16   2.0000      -1.333997       -36.2999
  17   2.0000      -1.333531       -36.2872
  18   2.0000      -1.331931       -36.2437
  19   2.0000      -1.330785       -36.2125
  20   2.0000      -1.330422       -36.2026
  21   2.0000      -0.871787       -23.7225
  22   2.0000      -0.871329       -23.7101
  23   2.0000      -0.870788       -23.6953
  24   2.0000      -0.870573       -23.6895
  25   2.0000      -0.870327       -23.6828
  26   2.0000      -0.868862       -23.6429
  27   2.0000      -0.809221       -22.0200
  28   2.0000      -0.763180       -20.7672
  29   2.0000      -0.762966       -20.7613
  30   2.0000      -0.759885       -20.6775
  31   2.0000      -0.758917       -20.6512
  32   2.0000      -0.750130       -20.4121
  33   2.0000      -0.665972       -18.1220
  34   2.0000      -0.665710       -18.1149
  35   2.0000      -0.664560       -18.0836
  36   2.0000      -0.662407       -18.0250
  37   2.0000      -0.654207       -17.8019
  38   2.0000      -0.653167       -17.7736
  39   2.0000      -0.528972       -14.3941
  40   2.0000      -0.528737       -14.3877
  41   2.0000      -0.527569       -14.3559
  42   0.0000      -0.328330        -8.9343
  43   0.0000      -0.328049        -8.9267
  44   0.0000      -0.301597        -8.2069
  45   0.0000      -0.244903        -6.6642
  46   0.0000      -0.241775        -6.5790

MULLIKEN ATOMIC CHARGES
-----------------------
   0 Fe:    0.743162
   1 O :   -0.256734
   2 O :   -0.254849
   3 O :   -0.255311
   4 O :   -0.256580
   5 O :   -0.254959
   6 O :   -0.255331
   7 H :    0.233068
   8 H :    0.232281
   9 H :    0.232987
  10 H :    0.232102
  11 H :    0.232086
  12 H :    0.232756
  13 H :    0.232414
  14 H :    0.233099
  15 H :    0.231972
  16 H :    0.232994
  17 H :    0.232781
  18 H :    0.232062
Sum of atomic charges:    2.0000000

LOEWDIN ATOMIC CHARGES
----------------------
   0 Fe:    0.279970
   1 O :    0.026033
   2 O :    0.026976
   3 O :    0.026835
   4 O :    0.025968
   5 O :    0.026921
   6 O :    0.026775
   7 H :    0.129497
   8 H :    0.130554
   9 H :    0.129621
  10 H :    0.130455
  11 H :    0.130354
  12 H :    0.129781
  13 H :    0.130557
  14 H :    0.129410
  15 H :    0.130399
  16 H :    0.129685
  17 H :    0.129844
  18 H :    0.130364

  Mayer bond orders larger than 0.100000
B(  0-Fe,  1-O ) :   0.3907 B(  0-Fe,  2-O ) :   0.3939 B(  0-Fe,  3-O ) :   0.3926
B(  0-Fe,  4-O ) :   0.3907 B(  0-Fe,  5-O ) :   0.3940 B(  0-Fe,  6-O ) :   0.3925
B(  1-O , 13-H ) :   0.9455 B(  1-O , 14-H ) :   0.9423 B(  2-O , 15-H ) :   0.9456
B(  2-O , 16-H ) :   0.9424 B(  3-O , 17-H ) :   0.9429 B(  3-O , 18-H ) :   0.9453
B(  4-O ,  7-H ) :   0.9423 B(  4-O ,  8-H ) :   0.9456 B(  5-O ,  9-H ) :   0.9424
B(  5-O , 10-H ) :   0.9455 B(  6-O , 11-H ) :   0.9453 B(  6-O , 12-H ) :   0.9429

FINAL SINGLE POINT ENERGY     -1721.322726371350

DIPOLE MOMENT
-------------
                                X             Y             Z
Electronic contribution:      0.00034       0.00297      -0.00179
Nuclear contribution   :     -0.00151      -0.00464      -0.00221
                        -----------------------------------------
Total Dipole Moment    :     -0.00117      -0.00167      -0.00400
                        -----------------------------------------
Magnitude (a.u.)       :      0.00449
Magnitude (Debye)      :      0.01142

VIBRATIONAL FREQUENCIES
-----------------------

Scaling factor for frequencies =  1.000000000  (already applied!)

   0:         0.00 cm**-1
   1:         0.00 cm**-1
   2:         0.00 cm**-1
   3:         0.00 cm**-1
   4:         0.00 cm**-1
   5:         0.00 cm**-1
   6:        53.86 cm**-1
   7:       100.24 cm**-1
   8:       112.55 cm**-1
   9:       125.92 cm**-1
  10:       136.40 cm**-1
  11:       151.49 cm**-1
  12:       167.45 cm**-1
  13:       178.39 cm**-1
  14:       180.13 cm**-1
  15:       226.93 cm**-1
  16:       227.98 cm**-1
  17:       229.92 cm**-1
  18:       247.85 cm**-1
  19:       272.43 cm**-1
  20:       304.67 cm**-1
  21:       311.03 cm**-1
  22:       323.39 cm**-1
  23:       331.39 cm**-1
  24:       343.07 cm**-1
  25:       343.70 cm**-1
  26:       378.36 cm**-1
  27:       381.30 cm**-1
  28:       386.15 cm**-1
  29:       408.58 cm**-1
  30:       424.56 cm**-1
  31:       427.39 cm**-1
  32:       446.28 cm**-1
  33:       584.31 cm**-1
  34:       587.17 cm**-1
  35:       593.10 cm**-1
  36:       642.73 cm**-1
  37:       646.54 cm**-1
  38:       648.75 cm**-1
  39:      1611.04 cm**-1
  40:      1614.10 cm**-1
  41:      1614.73 cm**-1
  42:      1617.02 cm**-1
  43:      1617.44 cm**-1
  44:      1624.69 cm**-1
  45:      3758.65 cm**-1
  46:      3759.42 cm**-1
  47:      3760.22 cm**-1
  48:      3760.97 cm**-1
  49:      3762.18 cm**-1
  50:      3768.57 cm**-1
  51:      3841.47 cm**-1
  52:      3842.35 cm**-1
  53:      3842.53 cm**-1
  54:      3843.18 cm**-1
  55:      3844.93 cm**-1
  56:      3846.18 cm**-1

IR SPECTRUM
-----------

 Mode   freq       eps      Int      T**2         TX        TY        TZ
       cm**-1   L/(mol*cm) km/mol    a.u.
----------------------------------------------------------------------------
  6:     53.86   0.000040    0.20  0.000233  (-0.002920 -0.001524  0.014900)
  7:    100.24   0.000002    0.01  0.000007  (-0.001452  0.000310  0.002150)
  8:    112.55   0.000004    0.02  0.000010  ( 0.002971 -0.000937 -0.000509)
  9:    125.92   0.012859   64.98  0.031869  ( 0.047316  0.049490 -0.164866)
 10:    136.40   0.006121   30.94  0.014005  ( 0.074797 -0.091660 -0.002908)
 11:    151.49   0.003584   18.11  0.007384  (-0.048169 -0.049059 -0.051541)
 12:    167.45   0.002172   10.97  0.004047  (-0.018294 -0.022536  0.056609)
 13:    178.39   0.001200    6.06  0.002099  (-0.000104  0.039858 -0.022596)
 14:    180.13   0.001904    9.62  0.003299  (-0.047634  0.030155  0.010984)
 15:    226.93   0.000320    1.62  0.000440  ( 0.018537 -0.009371  0.002846)
 16:    227.98   0.001743    8.81  0.002386  (-0.040608  0.026393 -0.006391)
 17:    229.92   0.003432   17.34  0.004658  ( 0.028743  0.017186 -0.059467)
 18:    247.85   0.000007    0.04  0.000009  (-0.001610  0.001958 -0.001528)
 19:    272.43   0.000001    0.01  0.000002  ( 0.000256  0.000517  0.001126)
 20:    304.67   0.073799  372.95  0.075591  ( 0.046063  0.006111 -0.270983)
 21:    311.03   0.004364   22.05  0.004378  ( 0.017901  0.002040 -0.063669)
 22:    323.39   0.089900  454.32  0.086751  (-0.013452  0.286359 -0.067590)
 23:    331.39   0.083015  419.52  0.078172  (-0.272411  0.058121  0.024224)
 24:    343.07   0.000004    0.02  0.000004  ( 0.001841 -0.000437 -0.000106)
 25:    343.70   0.000008    0.04  0.000007  ( 0.002550 -0.000796  0.000227)
 26:    378.36   0.000019    0.10  0.000016  (-0.003744  0.000561  0.001088)
 27:    381.30   0.000011    0.05  0.000009  ( 0.000039  0.000350 -0.002923)
 28:    386.15   0.000001    0.01  0.000001  (-0.000375  0.000307  0.000938)
 29:    408.58   0.003671   18.55  0.002804  (-0.030143 -0.028873 -0.032585)
 30:    424.56   0.009770   49.38  0.007182  ( 0.038089  0.049052 -0.057660)
 31:    427.39   0.013482   68.13  0.009844  (-0.067980  0.071316  0.011708)
 32:    446.28   0.021347  107.88  0.014927  ( 0.082823  0.042800  0.078968)
 33:    584.31   0.000001    0.00  0.000000  (-0.000144  0.000442  0.000334)
 34:    587.17   0.000000    0.00  0.000000  ( 0.000184 -0.000081  0.000002)
 35:    593.10   0.000001    0.00  0.000000  ( 0.000146  0.000468  0.000169)
 36:    642.73   0.035581  179.81  0.017276  ( 0.049740  0.121284  0.009581)
 37:    646.54   0.032417  163.82  0.015647  ( 0.117061 -0.044013  0.002530)
 38:    648.75   0.030638  154.83  0.014738  (-0.002540 -0.003489  0.121322)
 39:   1611.04   0.045570  230.29  0.008827  ( 0.061392  0.051968  0.048553)
 40:   1614.10   0.031061  156.97  0.006005  ( 0.055683 -0.042688 -0.032900)
 41:   1614.73   0.030406  153.66  0.005876  (-0.005722 -0.048001  0.059494)
 42:   1617.02   0.000815    4.12  0.000157  ( 0.011209 -0.005214 -0.002127)
 43:   1617.44   0.000307    1.55  0.000059  ( 0.001445 -0.006475  0.003898)
 44:   1624.69   0.000038    0.19  0.000007  (-0.002346 -0.000943 -0.000977)
 45:   3758.65   0.051557  260.55  0.004281  ( 0.002212  0.059829 -0.026384)
 46:   3759.42   0.001060    5.36  0.000088  ( 0.001309  0.007867 -0.004939)
 47:   3760.22   0.052988  267.78  0.004398  ( 0.026304 -0.025793 -0.055139)
 48:   3760.97   0.001409    7.12  0.000117  (-0.003642 -0.005216 -0.008743)
 49:   3762.18   0.054934  277.61  0.004557  (-0.061658 -0.010266 -0.025485)
 50:   3768.57   0.000036    0.18  0.000003  (-0.001624 -0.000400 -0.000424)
 51:   3841.47   0.009887   49.97  0.000803  (-0.002866  0.001212  0.028169)
 52:   3842.35   0.062978  318.26  0.005115  ( 0.003099 -0.004163 -0.071330)
 53:   3842.53   0.007364   37.22  0.000598  ( 0.015932 -0.002489 -0.018387)
 54:   3843.18   0.076709  387.65  0.006229  (-0.077638  0.000203 -0.014178)
 55:   3844.93   0.020921  105.73  0.001698  ( 0.004208  0.040967  0.001434)
 56:   3846.18   0.058855  297.43  0.004775  ( 0.007649  0.068609  0.003095)

--------------------------
THERMOCHEMISTRY AT 298.15K
--------------------------

Temperature         ... 298.15 K
Pressure            ... 1.00 atm
Total Mass          ... 163.94 AMU

Throughout the following assumptions are being made:
  (1) The electronic state is orbitally nondegenerate
  (2) There are no thermally accessible electronically excited states
  (3) Hindered rotations indicated by low frequency modes are not
      treated as such but are treated as vibrations and this may
      cause some error
  (4) All equations used are the standard statistical mechanics
      equations for an ideal gas
  (5) All vibrations are strictly harmonic

freq.      53.86  E(vib)   ...       0.52
freq.     100.24  E(vib)   ...       0.46
freq.     112.55  E(vib)   ...       0.45
freq.     125.92  E(vib)   ...       0.43
freq.     136.40  E(vib)   ...       0.42
freq.     151.49  E(vib)   ...       0.40
freq.     167.45  E(vib)   ...       0.39
freq.     178.39  E(vib)   ...       0.37
freq.     180.13  E(vib)   ...       0.37
freq.     226.93  E(vib)   ...       0.33
freq.     227.98  E(vib)   ...       0.33
freq.     229.92  E(vib)   ...       0.32
freq.     247.85  E(vib)   ...       0.31
freq.     272.43  E(vib)   ...       0.29
freq.     304.67  E(vib)   ...       0.26
freq.     311.03  E(vib)   ...       0.26
freq.     323.39  E(vib)   ...       0.25
freq.     331.39  E(vib)   ...       0.24
freq.     343.07  E(vib)   ...       0.23
freq.     343.70  E(vib)   ...       0.23
freq.     378.36  E(vib)   ...       0.21
freq.     381.30  E(vib)   ...       0.21
freq.     386.15  E(vib)   ...       0.20
freq.     408.58  E(vib)   ...       0.19
freq.     424.56  E(vib)   ...       0.18
freq.     427.39  E(vib)   ...       0.18
freq.     446.28  E(vib)   ...       0.17
freq.     584.31  E(vib)   ...       0.11
freq.     587.17  E(vib)   ...       0.10
freq.     593.10  E(vib)   ...       0.10
freq.     642.73  E(vib)   ...       0.09
freq.     646.54  E(vib)   ...       0.09
freq.     648.75  E(vib)   ...       0.08
freq.    1611.04  E(vib)   ...       0.00
freq.    1614.10  E(vib)   ...       0.00
freq.    1614.73  E(vib)   ...       0.00
freq.    1617.02  E(vib)   ...       0.00
freq.    1617.44  E(vib)   ...       0.00
freq.    1624.69  E(vib)   ...       0.00
freq.    3758.65  E(vib)   ...       0.00
freq.    3759.42  E(vib)   ...       0.00
freq.    3760.22  E(vib)   ...       0.00
freq.    3760.97  E(vib)   ...       0.00
freq.    3762.18  E(vib)   ...       0.00
freq.    3768.57  E(vib)   ...       0.00
freq.    3841.47  E(vib)   ...       0.00
freq.    3842.35  E(vib)   ...       0.00
freq.    3842.53  E(vib)   ...       0.00
freq.    3843.18  E(vib)   ...       0.00
freq.    3844.93  E(vib)   ...       0.00
freq.    3846.18  E(vib)   ...       0.00

------------
INNER ENERGY
------------

The inner energy is: U= E(el) + E(ZPE) + E(vib) + E(rot) + E(trans)
    E(el)   - is the total energy from the electronic structure calculation
              = E(kin-el) + E(nuc-el) + E(el-el) + E(nuc-nuc)
    E(ZPE)  - the the zero temperature vibrational energy from the frequency calculation
    E(vib)  - the the finite temperature correction to E(ZPE) due to population
              of excited vibrational states
    E(rot)  - is the rotational thermal energy
    E(trans)- is the translational thermal energy

Summary of contributions to the inner energy U:
Electronic energy                ...  -1721.32272637 Eh
Zero point energy                ...      0.15093699 Eh      94.71 kcal/mol
Thermal vibrational correction   ...      0.01394591 Eh       8.75 kcal/mol
Thermal rotational correction    ...      0.00141627 Eh       0.89 kcal/mol
Thermal translational correction ...      0.00141627 Eh       0.89 kcal/mol
-----------------------------------------------------------------------
Total thermal energy                  -1721.15501093 Eh

Summary of corrections to the electronic energy:
(perhaps to be used in another calculation)
Total thermal correction                  0.01677845 Eh      10.53 kcal/mol
Non-thermal (ZPE) correction              0.15093699 Eh      94.71 kcal/mol
-----------------------------------------------------------------------
Total correction                          0.16771544 Eh     105.24 kcal/mol

--------
ENTHALPY
--------

The enthalpy is H = U + kB*T
                kB is Boltzmann's constant
Total free energy                 ...  -1721.15501093 Eh
Thermal Enthalpy correction       ...      0.00094421 Eh       0.59 kcal/mol
-----------------------------------------------------------------------
Total Enthalpy                    ...  -1721.15406672 Eh

Note: Only C1 symmetry has been detected, increase convergence thresholds
      if your molecule has a higher symmetry. Symmetry factor of 1.0 is
      used for the rotational entropy correction.

Note: Rotational entropy computed according to Herzberg
Infrared and Raman Spectra, Chapter V,1, Van Nostrand Reinhold, 1945
Point Group:  C1, Symmetry Number:   1
Rotational constants in cm-1:     0.053958     0.053529     0.050936

Vibrational entropy computed according to the QRRHO of S. Grimme
Chem.Eur.J. 2012 18 9955

-------
ENTROPY
-------

The entropy contributions are T*S = T*(S(el)+S(vib)+S(rot)+S(trans))
     S(el)   - electronic entropy
     S(vib)  - vibrational entropy
     S(rot)  - rotational entropy
     S(trans)- translational entropy
The entropies will be listed as multiplied by the temperature to get
units of energy

Electronic entropy                ...      0.00000000 Eh      0.00 kcal/mol
Vibrational entropy               ...      0.02427270 Eh     15.23 kcal/mol
Rotational entropy                ...      0.01367666 Eh      8.58 kcal/mol
Translational entropy             ...      0.01957135 Eh     12.28 kcal/mol
-----------------------------------------------------------------------
Final entropy term                ...      0.05752071 Eh     36.09 kcal/mol

In case the symmetry of your molecule has not been determined correctly
or in case you have a reason to use a different symmetry number we print
out the resulting rotational entropy values for sn=1,12 :
 --------------------------------------------------------
|  sn= 1 | S(rot)=       0.01367666 Eh      8.58 kcal/mol|
|  sn= 2 | S(rot)=       0.01302221 Eh      8.17 kcal/mol|
|  sn= 3 | S(rot)=       0.01263937 Eh      7.93 kcal/mol|
|  sn= 4 | S(rot)=       0.01236775 Eh      7.76 kcal/mol|
|  sn= 5 | S(rot)=       0.01215706 Eh      7.63 kcal/mol|
|  sn= 6 | S(rot)=       0.01198492 Eh      7.52 kcal/mol|
|  sn= 7 | S(rot)=       0.01183937 Eh      7.43 kcal/mol|
|  sn= 8 | S(rot)=       0.01171329 Eh      7.35 kcal/mol|
|  sn= 9 | S(rot)=       0.01160209 Eh      7.28 kcal/mol|
|  sn=10 | S(rot)=       0.01150261 Eh      7.22 kcal/mol|
|  sn=11 | S(rot)=       0.01141262 Eh      7.16 kcal/mol|
|  sn=12 | S(rot)=       0.01133046 Eh      7.11 kcal/mol|

                             ****ORCA TERMINATED NORMALLY****
TOTAL RUN TIME: 0 days 0 hours 13 minutes 51 seconds 885 msec
