                         Program Version 5.0.0 -  RELEASE  -
|  1> ! RKS B3LYP/G cc-pVDZ NoRI pal8
|  2>
|  3> *xyz 0 1
|  4>   C   -0.84533195991773      0.95631204799741      0.86695688758137
|  5>   C   0.46296917953950      0.89055132107898      0.41153738968092
|  6>   C   1.06498249109929      2.05041746604826     -0.04872626223504
|  7>   C   0.38682375533153      3.25825741761093     -0.05957630313133
|  8>   C   -0.92916629483352      3.32496446678289      0.39786117470048
|  9>   C   -1.53691904595740      2.15806885302784      0.86178357772044
| 10>   H   -1.33177779310003      0.05786162666320      1.22288286662819
| 11>   H   1.00911644617855     -0.04137764481499      0.41174217012473
| 12>   H   0.89340943637666      4.14652768979640     -0.40661874558071
| 13>   H   -2.56260459262502      2.18503471734340      1.20271069002731
| 14>   C   -1.66709331376272      4.62322731007777      0.38662794093699
| 15>   C   -2.42161858132883      5.01473379007752      1.49250102782185
| 16>   C   -1.61923201631221      5.46623475990715     -0.72389685760276
| 17>   C   -3.10577169358506      6.21908872396761      1.47479389475736
| 18>   H   -2.46369194088787      4.39499072034369      2.37581764658229
| 19>   C   -2.30901947987771      6.66904435935388     -0.72694800403690
| 20>   H   -1.05555752795261      5.17208444276276     -1.59838613456934
| 21>   C   -3.05941590604282      7.05751618377553      0.37275066068088
| 22>   H   -2.26865845182014      7.30948735218955     -1.59800079723894
| 23>   H   -3.60007805771479      7.99261925989212      0.37887337421372
| 24>   Cl  2.70997882629083      1.99495162290832     -0.61716762133114
| 25>   Cl  -4.03387825909787      6.68923511320967      2.87110846426962
| 26> **                         ****END OF INPUT****

CARTESIAN COORDINATES (ANGSTROEM)
---------------------------------
  C     -0.845332    0.956312    0.866957
  C      0.462969    0.890551    0.411537
  C      1.064982    2.050417   -0.048726
  C      0.386824    3.258257   -0.059576
  C     -0.929166    3.324964    0.397861
  C     -1.536919    2.158069    0.861784
  H     -1.331778    0.057862    1.222883
  H      1.009116   -0.041378    0.411742
  H      0.893409    4.146528   -0.406619
  H     -2.562605    2.185035    1.202711
  C     -1.667093    4.623227    0.386628
  C     -2.421619    5.014734    1.492501
  C     -1.619232    5.466235   -0.723897
  C     -3.105772    6.219089    1.474794
  H     -2.463692    4.394991    2.375818
  C     -2.309019    6.669044   -0.726948
  H     -1.055558    5.172084   -1.598386
  C     -3.059416    7.057516    0.372751
  H     -2.268658    7.309487   -1.598001
  H     -3.600078    7.992619    0.378873
  Cl     2.709979    1.994952   -0.617168
  Cl    -4.033878    6.689235    2.871108

 Total Charge           Charge          ....    0
 Multiplicity           Mult            ....    1
 Number of Electrons    NEL             ....  114
 Basis Dimension        Dim             ....  244

ORBITAL ENERGIES
----------------

  NO   OCC          E(Eh)            E(eV)
   0   2.0000    -101.547253     -2763.2412
   1   2.0000    -101.547251     -2763.2412
   2   2.0000     -10.254004      -279.0256
   3   2.0000     -10.254000      -279.0255
   4   2.0000     -10.216778      -278.0127
   5   2.0000     -10.216546      -278.0064
   6   2.0000     -10.206554      -277.7344
   7   2.0000     -10.206552      -277.7344
   8   2.0000     -10.206126      -277.7228
   9   2.0000     -10.206125      -277.7228
  10   2.0000     -10.205919      -277.7172
  11   2.0000     -10.205918      -277.7171
  12   2.0000     -10.202159      -277.6149
  13   2.0000     -10.202154      -277.6147
  14   2.0000      -9.465821      -257.5781
  15   2.0000      -9.465816      -257.5779
  16   2.0000      -7.228316      -196.6925
  17   2.0000      -7.228310      -196.6923
  18   2.0000      -7.218704      -196.4309
  19   2.0000      -7.218703      -196.4309
  20   2.0000      -7.218303      -196.4200
  21   2.0000      -7.218302      -196.4200
  22   2.0000      -0.908185       -24.7130
  23   2.0000      -0.900285       -24.4980
  24   2.0000      -0.859572       -23.3901
  25   2.0000      -0.840493       -22.8710
  26   2.0000      -0.792707       -21.5707
  27   2.0000      -0.759533       -20.6679
  28   2.0000      -0.743499       -20.2316
  29   2.0000      -0.737600       -20.0711
  30   2.0000      -0.649679       -17.6787
  31   2.0000      -0.630493       -17.1566
  32   2.0000      -0.606076       -16.4922
  33   2.0000      -0.590578       -16.0704
  34   2.0000      -0.540690       -14.7129
  35   2.0000      -0.517397       -14.0791
  36   2.0000      -0.494278       -13.4500
  37   2.0000      -0.481796       -13.1103
  38   2.0000      -0.470864       -12.8129
  39   2.0000      -0.457538       -12.4503
  40   2.0000      -0.441738       -12.0203
  41   2.0000      -0.440905       -11.9976
  42   2.0000      -0.436697       -11.8831
  43   2.0000      -0.410164       -11.1611
  44   2.0000      -0.402132       -10.9426
  45   2.0000      -0.391205       -10.6452
  46   2.0000      -0.377259       -10.2657
  47   2.0000      -0.365225        -9.9383
  48   2.0000      -0.361643        -9.8408
  49   2.0000      -0.347132        -9.4459
  50   2.0000      -0.335518        -9.1299
  51   2.0000      -0.317840        -8.6489
  52   2.0000      -0.314945        -8.5701
  53   2.0000      -0.289400        -7.8750
  54   2.0000      -0.261623        -7.1191
  55   2.0000      -0.256872        -6.9898
  56   2.0000      -0.245474        -6.6797
  57   0.0000      -0.046238        -1.2582
  58   0.0000      -0.023595        -0.6420
  59   0.0000      -0.023166        -0.6304
  60   0.0000       0.002905         0.0790
  61   0.0000       0.029316         0.7977

MULLIKEN ATOMIC CHARGES
-----------------------
   0 C :    0.054741
   1 C :    0.126254
   2 C :   -0.146678
   3 C :    0.134679
   4 C :    0.008225
   5 C :    0.035151
   6 H :   -0.023923
   7 H :   -0.027100
   8 H :   -0.035503
   9 H :   -0.039789
  10 C :    0.008088
  11 C :    0.134808
  12 C :    0.035124
  13 C :   -0.146704
  14 H :   -0.035531
  15 C :    0.054671
  16 H :   -0.039818
  17 C :    0.126346
  18 H :   -0.023935
  19 H :   -0.027093
  20 Cl:   -0.086014
  21 Cl:   -0.085998
Sum of atomic charges:    0.0000000

LOEWDIN ATOMIC CHARGES
----------------------
   0 C :   -0.013330
   1 C :   -0.031648
   2 C :   -0.140089
   3 C :   -0.025238
   4 C :   -0.012928
   5 C :   -0.017919
   6 H :    0.031367
   7 H :    0.030165
   8 H :    0.028264
   9 H :    0.027392
  10 C :   -0.012932
  11 C :   -0.025236
  12 C :   -0.017922
  13 C :   -0.140115
  14 H :    0.028262
  15 C :   -0.013333
  16 H :    0.027387
  17 C :   -0.031643
  18 H :    0.031367
  19 H :    0.030165
  20 Cl:    0.123966
  21 Cl:    0.123997

  Mayer bond orders larger than 0.100000
B(  0-C ,  1-C ) :   1.4519 B(  0-C ,  5-C ) :   1.4591 B(  0-C ,  6-H ) :   0.9302
B(  1-C ,  2-C ) :   1.4032 B(  1-C ,  7-H ) :   0.9329 B(  2-C ,  3-C ) :   1.3866
B(  2-C , 20-Cl) :   1.0340 B(  3-C ,  4-C ) :   1.4271 B(  3-C ,  8-H ) :   0.9272
B(  4-C ,  5-C ) :   1.4367 B(  4-C , 10-C ) :   0.9771 B(  5-C ,  9-H ) :   0.9329
B( 10-C , 11-C ) :   1.4271 B( 10-C , 12-C ) :   1.4368 B( 11-C , 13-C ) :   1.3866
B( 11-C , 14-H ) :   0.9272 B( 12-C , 15-C ) :   1.4591 B( 12-C , 16-H ) :   0.9329
B( 13-C , 17-C ) :   1.4032 B( 13-C , 21-Cl) :   1.0340 B( 15-C , 17-C ) :   1.4519
B( 15-C , 18-H ) :   0.9302 B( 17-C , 19-H ) :   0.9329

FINAL SINGLE POINT ENERGY     -1382.566364351804

DIPOLE MOMENT
-------------
                                X             Y             Z
Electronic contribution:      3.32710       1.92467       3.84265
Nuclear contribution   :     -3.59384      -2.07894      -4.15061
                        -----------------------------------------
Total Dipole Moment    :     -0.26674      -0.15427      -0.30796
                        -----------------------------------------
Magnitude (a.u.)       :      0.43564
Magnitude (Debye)      :      1.10732

Rotational constants in cm-1:     0.042977     0.007687     0.006936
Rotational constants in MHz :  1288.420402   230.438753   207.945622

                             ****ORCA TERMINATED NORMALLY****
TOTAL RUN TIME: 0 days 0 hours 0 minutes 30 seconds 218 msec
