 Gaussian 16, Revision A.03,
 Gaussian 16:  ES64L-G16RevA.03 25-Dec-2016

 -------------------------------------
 # Opt(MaxCycle=1000) Freq UHF/Def2SVP
 -------------------------------------

 ------------
 [Fe(H2O)6]2+
 ------------
 Symbolic Z-matrix:
 Charge =  2 Multiplicity = 1

 SCF Done:  E(UHF) =  -1717.42000291     A.U. after   20 cycles
 SCF Done:  E(UHF) =  -1717.49271768     A.U. after   19 cycles
 SCF Done:  E(UHF) =  -1717.57265697     A.U. after   19 cycles
 SCF Done:  E(UHF) =  -1717.59303730     A.U. after   19 cycles
 SCF Done:  E(UHF) =  -1717.60369824     A.U. after   19 cycles
 SCF Done:  E(UHF) =  -1717.61150298     A.U. after   19 cycles
 SCF Done:  E(UHF) =  -1717.62077288     A.U. after   18 cycles
 SCF Done:  E(UHF) =  -1717.62150017     A.U. after   24 cycles
 SCF Done:  E(UHF) =  -1717.62437020     A.U. after   20 cycles
 SCF Done:  E(UHF) =  -1717.62473884     A.U. after   17 cycles
 SCF Done:  E(UHF) =  -1717.63926882     A.U. after   14 cycles
 SCF Done:  E(UHF) =  -1717.63926978     A.U. after   14 cycles
 SCF Done:  E(UHF) =  -1717.63927070     A.U. after   13 cycles
 SCF Done:  E(UHF) =  -1717.63927119     A.U. after   13 cycles
 SCF Done:  E(UHF) =  -1717.63927166     A.U. after   13 cycles
 SCF Done:  E(UHF) =  -1717.63927210     A.U. after   13 cycles
 SCF Done:  E(UHF) =  -1717.63927247     A.U. after   13 cycles
 SCF Done:  E(UHF) =  -1717.63927275     A.U. after   13 cycles
 SCF Done:  E(UHF) =  -1717.63927287     A.U. after   13 cycles
 Optimization completed.
    -- Stationary point found.
 Normal termination of Gaussian 16 at Sat May 14 21:49:19 2022.

 ----------------------------------------------------------------
 #N Geom=AllCheck Guess=TCheck SCRF=Check GenChk UHF/def2SVP Freq
 ----------------------------------------------------------------

 Structure from the checkpoint file:  "/scratch/Gau-287624.chk"
 ------------
 [Fe(H2O)6]2+
 ------------
 Charge =  2 Multiplicity = 1

                         Standard orientation:
 ---------------------------------------------------------------------
 Center     Atomic      Atomic             Coordinates (Angstroms)
 Number     Number       Type             X           Y           Z
 ---------------------------------------------------------------------
      1         26           0        0.000018    0.000049   -0.000088
      2          8           0       -1.564816   -0.316485    1.338123
      3          8           0       -0.222226   -1.942728   -0.718604
      4          8           0        1.357814   -0.682974    1.424770
      5          8           0        1.564849    0.316590   -1.338655
      6          8           0        0.222178    1.942527    0.719259
      7          8           0       -1.357979    0.682684   -1.424627
      8          1           0        2.067676    1.118187   -1.436049
      9          1           0        1.904603   -0.312663   -1.965943
     10          1           0        0.780125    2.214927    1.439932
     11          1           0       -0.215081    2.718908    0.386217
     12          1           0       -2.300328    0.752074   -1.314873
     13          1           0       -1.149018    0.982244   -2.302962
     14          1           0       -1.904456    0.312841    1.965391
     15          1           0       -2.068228   -1.117786    1.434907
     16          1           0        0.220893   -2.717666   -0.389978
     17          1           0       -0.784664   -2.216537   -1.435240
     18          1           0        1.148838   -0.984515    2.302423
     19          1           0        2.300613   -0.748206    1.316325
 ---------------------------------------------------------------------

 SCF Done:  E(UHF) =  -1717.63927287     A.U. after    1 cycles

 The electronic state is 1-A.
 Alpha  occ. eigenvalues -- -261.63918 -32.20214 -27.69196 -27.69196 -27.69196
 Alpha  occ. eigenvalues --  -20.89753 -20.89751 -20.89750 -20.89749 -20.89746
 Alpha  occ. eigenvalues --  -20.89745  -4.42351  -3.00548  -3.00548  -3.00547
 Alpha  occ. eigenvalues --   -1.68184  -1.67235  -1.67234  -1.67233  -1.66976
 Alpha  occ. eigenvalues --   -1.66976  -1.06422  -1.06422  -1.06421  -1.06208
 Alpha  occ. eigenvalues --   -1.06207  -1.06206  -1.00273  -0.94967  -0.94964
 Alpha  occ. eigenvalues --   -0.94961  -0.94486  -0.94485  -0.87983  -0.87981
 Alpha  occ. eigenvalues --   -0.87980  -0.85298  -0.85295  -0.85291  -0.81107
 Alpha  occ. eigenvalues --   -0.81107  -0.81106
 Alpha virt. eigenvalues --   -0.18372  -0.10316  -0.10314  -0.10311  -0.07703
 Alpha virt. eigenvalues --   -0.07703  -0.01986  -0.01983  -0.01982  -0.01331
 Alpha virt. eigenvalues --   -0.01330  -0.01328   0.01018   0.01019   0.04927

  Beta  occ. eigenvalues -- -261.63918 -32.20214 -27.69196 -27.69196 -27.69196
  Beta  occ. eigenvalues --  -20.89753 -20.89751 -20.89750 -20.89749 -20.89746
  Beta  occ. eigenvalues --  -20.89745  -4.42351  -3.00548  -3.00548  -3.00547
  Beta  occ. eigenvalues --   -1.68184  -1.67235  -1.67234  -1.67233  -1.66976
  Beta  occ. eigenvalues --   -1.66976  -1.06422  -1.06422  -1.06421  -1.06208
  Beta  occ. eigenvalues --   -1.06207  -1.06206  -1.00273  -0.94967  -0.94964
  Beta  occ. eigenvalues --   -0.94961  -0.94486  -0.94485  -0.87983  -0.87981
  Beta  occ. eigenvalues --   -0.87980  -0.85298  -0.85295  -0.85291  -0.81107
  Beta  occ. eigenvalues --   -0.81107  -0.81106
  Beta virt. eigenvalues --   -0.18372  -0.10316  -0.10314  -0.10311  -0.07703
  Beta virt. eigenvalues --   -0.07703  -0.01986  -0.01983  -0.01982  -0.01331
  Beta virt. eigenvalues --   -0.01330  -0.01328   0.01018   0.01019   0.04927

 Mulliken charges and spin densities:
               1          2
     1  Fe   1.303344   0.000000
     2  O   -0.383138   0.000000
     3  O   -0.383141   0.000000
     4  O   -0.383147   0.000000
     5  O   -0.383145   0.000000
     6  O   -0.383139   0.000000
     7  O   -0.383135   0.000000
     8  H    0.249600   0.000000
     9  H    0.249643   0.000000
    10  H    0.249615   0.000000
    11  H    0.249625   0.000000
    12  H    0.249647   0.000000
    13  H    0.249608   0.000000
    14  H    0.249630   0.000000
    15  H    0.249624   0.000000
    16  H    0.249630   0.000000
    17  H    0.249628   0.000000
    18  H    0.249625   0.000000
    19  H    0.249627   0.000000
 Sum of Mulliken charges =   2.00000   0.00000

 Dipole moment (field-independent basis, Debye):
    X=              0.0022    Y=              0.0051    Z=             -0.0010  Tot=              0.0056
 Quadrupole moment (field-independent basis, Debye-Ang):
   XX=            -14.4534   YY=            -14.4382   ZZ=            -14.4233
   XY=              0.0091   XZ=              0.0005   YZ=             -0.0053

  Exact polarizability:  34.758   0.002  34.761  -0.000   0.000  34.768
 Approx polarizability:  28.799   0.001  28.802  -0.000   0.000  28.809

                      1                      2                      3
                      A                      A                      A
 Frequencies --    135.2275               135.2333               135.2340
 Red. masses --      4.5810                 4.5811                 4.5830
 Frc consts  --      0.0494                 0.0494                 0.0494
 IR Inten    --      0.0706                 0.0335                 0.0891
 Raman Activ --      0.0006                 0.0006                 0.0006

                      4                      5                      6
                      A                      A                      A
 Frequencies --    135.7021               135.7281               135.7690
 Red. masses --      4.5152                 4.5134                 4.5129
 Frc consts  --      0.0490                 0.0490                 0.0490
 IR Inten    --      7.9095                 7.9519                 7.9188
 Raman Activ --      0.0000                 0.0000                 0.0000

                      7                      8                      9
                      A                      A                      A
 Frequencies --    180.7817               180.7889               180.7954
 Red. masses --      4.8373                 4.8381                 4.8402
 Frc consts  --      0.0931                 0.0932                 0.0932
 IR Inten    --      0.0214                 0.0221                 0.0209
 Raman Activ --      0.0000                 0.0000                 0.0000

                     10                     11                     12
                      A                      A                      A
 Frequencies --    211.4241               211.4408               272.2556
 Red. masses --      1.0078                 1.0078                 1.0326
 Frc consts  --      0.0265                 0.0265                 0.0451
 IR Inten    --      0.0004                 0.0012                 0.0061
 Raman Activ --      0.0002                 0.0001                 1.8955

                     13                     14                     15
                      A                      A                      A
 Frequencies --    272.2947               272.3296               305.0461
 Red. masses --      1.0327                 1.0325                 5.7097
 Frc consts  --      0.0451                 0.0451                 0.3130
 IR Inten    --      0.0009                 0.0021                 0.0000
 Raman Activ --      1.8893                 1.8961                 0.0302

                     16                     17                     18
                      A                      A                      A
 Frequencies --    305.0795               352.9666               377.5943
 Red. masses --      5.7097                 5.8013                 3.2355
 Frc consts  --      0.3131                 0.4258                 0.2718
 IR Inten    --      0.0000                 0.0002                99.5558
 Raman Activ --      0.0302                 0.2475                 0.0009

                     19                     20                     21
                      A                      A                      A
 Frequencies --    377.6444               377.6827               393.2118
 Red. masses --      3.2426                 3.2464                 1.1012
 Frc consts  --      0.2725                 0.2728                 0.1003
 IR Inten    --     99.0142                98.6314                 0.0211
 Raman Activ --      0.0001                 0.0002                 6.6508

                     22                     23                     24
                      A                      A                      A
 Frequencies --    393.4084               393.5518               410.7883
 Red. masses --      1.1009                 1.1007                 1.0080
 Frc consts  --      0.1004                 0.1004                 0.1002
 IR Inten    --      0.0066                 0.0219                 0.1325
 Raman Activ --      6.6692                 6.6862                 0.0004

                     25                     26                     27
                      A                      A                      A
 Frequencies --    423.2788               423.3362               423.3695
 Red. masses --      1.3434                 1.3443                 1.3459
 Frc consts  --      0.1418                 0.1419                 0.1421
 IR Inten    --    463.3314               464.3954               465.4220
 Raman Activ --      0.0007                 0.0004                 0.0009

                     28                     29                     30
                      A                      A                      A
 Frequencies --    598.7760               598.8145               598.8469
 Red. masses --      1.1807                 1.1806                 1.1805
 Frc consts  --      0.2494                 0.2494                 0.2494
 IR Inten    --      0.0284                 0.0016                 0.0171
 Raman Activ --      0.0227                 0.0233                 0.0234

                     31                     32                     33
                      A                      A                      A
 Frequencies --    633.0613               633.0846               633.0976
 Red. masses --      1.2867                 1.2868                 1.2866
 Frc consts  --      0.3038                 0.3039                 0.3038
 IR Inten    --    344.0644               343.9371               344.3823
 Raman Activ --      0.0000                 0.0000                 0.0000

                     34                     35                     36
                      A                      A                      A
 Frequencies --   1764.7702              1764.7931              1764.8001
 Red. masses --      1.0920                 1.0920                 1.0920
 Frc consts  --      2.0038                 2.0039                 2.0039
 IR Inten    --    279.8786               279.6458               279.1546
 Raman Activ --      0.0028                 0.0016                 0.0024

                     37                     38                     39
                      A                      A                      A
 Frequencies --   1766.3728              1766.3806              1771.3133
 Red. masses --      1.0923                 1.0923                 1.0876
 Frc consts  --      2.0079                 2.0080                 2.0106
 IR Inten    --      0.1917                 0.0993                 0.0082
 Raman Activ --      6.2559                 6.2579                 0.7784

                     40                     41                     42
                      A                      A                      A
 Frequencies --   4074.7919              4074.7956              4076.5191
 Red. masses --      1.0456                 1.0456                 1.0458
 Frc consts  --     10.2293                10.2293                10.2398
 IR Inten    --      0.0033                 0.0118               365.8402
 Raman Activ --     35.4038                35.4033                 0.0008

                     43                     44                     45
                      A                      A                      A
 Frequencies --   4076.5237              4076.5312              4088.7899
 Red. masses --      1.0458                 1.0458                 1.0469
 Frc consts  --     10.2398                10.2398                10.3120
 IR Inten    --    366.0682               366.1762                 0.0001
 Raman Activ --      0.0016                 0.0012               227.6140

                     46                     47                     48
                      A                      A                      A
 Frequencies --   4158.9367              4158.9382              4158.9479
 Red. masses --      1.0852                 1.0852                 1.0852
 Frc consts  --     11.0591                11.0591                11.0592
 IR Inten    --      0.2233                 0.1100                 1.1779
 Raman Activ --     50.9849                51.0008                50.9475

                     49                     50                     51
                      A                      A                      A
 Frequencies --   4159.8064              4159.8072              4159.8204
 Red. masses --      1.0854                 1.0854                 1.0854
 Frc consts  --     11.0658                11.0658                11.0659
 IR Inten    --    556.9695               556.8383               556.0314
 Raman Activ --      0.0281                 0.0057                 0.1164

 - Thermochemistry -
 -------------------
 Temperature   298.150 Kelvin.  Pressure   1.00000 Atm.
 Atom     1 has atomic number 26 and mass  55.93494

 Molecular mass:   163.99833 amu.
 Principal axes and moments of inertia in atomic units:
                           1         2         3
     Eigenvalues --  1209.839931210.032731210.30744
           X            0.99776   0.06696   0.00077
           Y           -0.06691   0.99735  -0.02869
           Z           -0.00269   0.02858   0.99959
 This molecule is an asymmetric top.
 Rotational symmetry number  1.
 Warning -- assumption of classical behavior for rotation
           may cause significant error
 Rotational temperatures (Kelvin)      0.07159     0.07158     0.07156
 Rotational constants (GHZ):           1.49172     1.49148     1.49114
 Zero-point vibrational energy     426291.0 (Joules/Mol)
                                  101.88598 (Kcal/Mol)
 Warning -- explicit consideration of  30 degrees of freedom as
           vibrations may cause significant error
 Vibrational temperatures:    194.56   194.57   194.57   195.25   195.28
          (Kelvin)            195.34   260.10   260.11   260.12   304.19
                              304.22   391.72   391.77   391.82   438.89
                              438.94   507.84   543.27   543.35   543.40
                              565.74   566.03   566.23   591.03   609.00
                              609.09   609.13   861.51   861.56   861.61
                              910.83   910.87   910.89  2539.11  2539.14
                             2539.15  2541.42  2541.43  2548.52  5862.72
                             5862.72  5865.20  5865.21  5865.22  5882.86
                             5983.78  5983.78  5983.80  5985.03  5985.03
                             5985.05

 Zero-point correction=                           0.162366 (Hartree/Particle)
 Thermal correction to Energy=                    0.178649
 Thermal correction to Enthalpy=                  0.179593
 Thermal correction to Gibbs Free Energy=         0.122913
 Sum of electronic and zero-point Energies=          -1717.476907
 Sum of electronic and thermal Energies=             -1717.460624
 Sum of electronic and thermal Enthalpies=           -1717.459680
 Sum of electronic and thermal Free Energies=        -1717.516360

                     E (Thermal)             CV                S
                      KCal/Mol        Cal/Mol-Kelvin    Cal/Mol-Kelvin
 Total                  112.104             57.658            119.293
 Electronic               0.000              0.000              0.000
 Translational            0.889              2.981             41.193
 Rotational               0.889              2.981             28.962
 Vibrational            110.326             51.697             49.139
 Vibration     1          0.613              1.918              2.870
 Vibration     2          0.613              1.918              2.870
 Vibration     3          0.613              1.918              2.870
 Vibration     4          0.614              1.918              2.864
 Vibration     5          0.614              1.918              2.863
 Vibration     6          0.614              1.918              2.863
 Vibration     7          0.630              1.866              2.320
 Vibration     8          0.630              1.866              2.320
 Vibration     9          0.630              1.866              2.320
 Vibration    10          0.643              1.823              2.031
 Vibration    11          0.643              1.823              2.031
 Vibration    12          0.675              1.724              1.582
 Vibration    13          0.675              1.724              1.582
 Vibration    14          0.675              1.724              1.581
 Vibration    15          0.696              1.664              1.389
 Vibration    16          0.696              1.664              1.389
 Vibration    17          0.729              1.569              1.153
 Vibration    18          0.748              1.518              1.049
 Vibration    19          0.748              1.518              1.049
 Vibration    20          0.748              1.518              1.048
 Vibration    21          0.760              1.485              0.988
 Vibration    22          0.761              1.484              0.987
 Vibration    23          0.761              1.484              0.987
 Vibration    24          0.775              1.447              0.924
 Vibration    25          0.785              1.420              0.881
 Vibration    26          0.785              1.419              0.881
 Vibration    27          0.786              1.419              0.881
 Vibration    28          0.957              1.034              0.452
 Vibration    29          0.957              1.034              0.452
 Vibration    30          0.957              1.034              0.452

                           ! Non-Optimized Parameters !
 Normal termination of Gaussian 16 at Sat May 14 21:50:00 2022.
