                         Program Version 5.0.0 -  RELEASE  -
|  1> ! UHF def2-SVP pal8
|  2>
|  3> %scf
|  4>     STABPerform                 true
|  5>     STABRestartUHFifUnstable    true
|  6> end
|  7>
|  8> *xyz 0 1
|  9>   C     -3.693788    1.345950   -0.080153
| 10>   C     -2.193484    1.373788   -0.056812
| 11>   H     -4.225508    1.180088   -1.010334
| 12>   H     -4.255204    1.224048    0.839301
| 13>   C     -1.554416   -0.023401   -0.016100
| 14>   H     -1.824927    1.905707   -0.939850
| 15>   H     -1.852812    1.944021    0.813355
| 16>   C     -0.027056    0.014500    0.007320
| 17>   H     -1.919913   -0.559214    0.866609
| 18>   H     -1.893486   -0.598246   -0.884715
| 19>   H      0.334747    0.551752   -0.877315
| 20>   H      0.305045    0.594496    0.874340
| 21>   C      0.609304   -1.374514    0.044919
| 22>   H      0.262703   -1.951369   -0.819054
| 23>   H      0.259278   -1.912060    0.933203
| 24>   C      2.147820   -1.364759    0.037560
| 25>   H      2.493149   -2.399801   -0.057561
| 26>   H      2.498336   -0.839762   -0.856087
| 27>   C      2.771544   -0.752033    1.258758
| 28>   H      3.140055    0.266294    1.257206
| 29>   H      2.687753   -1.251260    2.218099
| 30> *
| 31>
| 32>                          ****END OF INPUT****

CARTESIAN COORDINATES (ANGSTROEM)
---------------------------------
  C     -3.693788    1.345950   -0.080153
  C     -2.193484    1.373788   -0.056812
  H     -4.225508    1.180088   -1.010334
  H     -4.255204    1.224048    0.839301
  C     -1.554416   -0.023401   -0.016100
  H     -1.824927    1.905707   -0.939850
  H     -1.852812    1.944021    0.813355
  C     -0.027056    0.014500    0.007320
  H     -1.919913   -0.559214    0.866609
  H     -1.893486   -0.598246   -0.884715
  H      0.334747    0.551752   -0.877315
  H      0.305045    0.594496    0.874340
  C      0.609304   -1.374514    0.044919
  H      0.262703   -1.951369   -0.819054
  H      0.259278   -1.912060    0.933203
  C      2.147820   -1.364759    0.037560
  H      2.493149   -2.399801   -0.057561
  H      2.498336   -0.839762   -0.856087
  C      2.771544   -0.752033    1.258758
  H      3.140055    0.266294    1.257206
  H      2.687753   -1.251260    2.218099

 Total Charge           Charge          ....    0
 Multiplicity           Mult            ....    1
 Number of Electrons    NEL             ....   56
 Basis Dimension        Dim             ....  168

ORBITAL ENERGIES
----------------
                 SPIN UP ORBITALS
  NO   OCC          E(Eh)            E(eV)
   0   1.0000     -11.231474      -305.6239
   1   1.0000     -11.227029      -305.5030
   2   1.0000     -11.222590      -305.3822
   3   1.0000     -11.221403      -305.3499
   4   1.0000     -11.219723      -305.3042
   5   1.0000     -11.217908      -305.2548
   6   1.0000     -11.206044      -304.9319
   7   1.0000      -1.081700       -29.4346
   8   1.0000      -1.039403       -28.2836
   9   1.0000      -0.971102       -26.4250
  10   1.0000      -0.885256       -24.0890
  11   1.0000      -0.815206       -22.1829
  12   1.0000      -0.783795       -21.3281
  13   1.0000      -0.752855       -20.4862
  14   1.0000      -0.654453       -17.8086
  15   1.0000      -0.623642       -16.9702
  16   1.0000      -0.605116       -16.4661
  17   1.0000      -0.579760       -15.7761
  18   1.0000      -0.565396       -15.3852
  19   1.0000      -0.554101       -15.0779
  20   1.0000      -0.531113       -14.4523
  21   1.0000      -0.508764       -13.8442
  22   1.0000      -0.496603       -13.5133
  23   1.0000      -0.472944       -12.8695
  24   1.0000      -0.465559       -12.6685
  25   1.0000      -0.461872       -12.5682
  26   1.0000      -0.459781       -12.5113
  27   1.0000      -0.351920        -9.5762
  28   0.0000       0.139009         3.7826
  29   0.0000       0.183833         5.0023
  30   0.0000       0.196185         5.3385
  31   0.0000       0.205599         5.5946
  32   0.0000       0.210190         5.7196

                 SPIN DOWN ORBITALS
  NO   OCC          E(Eh)            E(eV)
   0   1.0000     -11.231696      -305.6300
   1   1.0000     -11.225879      -305.4717
   2   1.0000     -11.223591      -305.4094
   3   1.0000     -11.222121      -305.3694
   4   1.0000     -11.218800      -305.2791
   5   1.0000     -11.217657      -305.2480
   6   1.0000     -11.205770      -304.9245
   7   1.0000      -1.081997       -29.4426
   8   1.0000      -1.038719       -28.2650
   9   1.0000      -0.969422       -26.3793
  10   1.0000      -0.889903       -24.2155
  11   1.0000      -0.815364       -22.1872
  12   1.0000      -0.771315       -20.9886
  13   1.0000      -0.761167       -20.7124
  14   1.0000      -0.653483       -17.7822
  15   1.0000      -0.627389       -17.0721
  16   1.0000      -0.607552       -16.5323
  17   1.0000      -0.580574       -15.7982
  18   1.0000      -0.561992       -15.2926
  19   1.0000      -0.553085       -15.0502
  20   1.0000      -0.531730       -14.4691
  21   1.0000      -0.510080       -13.8800
  22   1.0000      -0.492717       -13.4075
  23   1.0000      -0.473745       -12.8913
  24   1.0000      -0.465667       -12.6714
  25   1.0000      -0.461308       -12.5528
  26   1.0000      -0.459491       -12.5034
  27   1.0000      -0.351917        -9.5762
  28   0.0000       0.145131         3.9492
  29   0.0000       0.179886         4.8949
  30   0.0000       0.197078         5.3628
  31   0.0000       0.205639         5.5957
  32   0.0000       0.207051         5.6341

MULLIKEN ATOMIC CHARGES AND SPIN POPULATIONS
--------------------------------------------
   0 C :   -0.102267    1.287115
   1 C :   -0.046790   -0.187818
   2 H :    0.053245   -0.092796
   3 H :    0.053344   -0.092802
   4 C :   -0.062859    0.050510
   5 H :    0.030963    0.016773
   6 H :    0.031222    0.016564
   7 C :   -0.060080    0.006827
   8 H :    0.022535   -0.001965
   9 H :    0.022045   -0.002152
  10 H :    0.018393   -0.001104
  11 H :    0.025662   -0.001519
  12 C :   -0.052620   -0.048901
  13 H :    0.024175   -0.002724
  14 H :    0.021873    0.002703
  15 C :   -0.032668    0.184267
  16 H :    0.037785   -0.029665
  17 H :    0.029813   -0.009226
  18 C :   -0.123327   -1.283173
  19 H :    0.057660    0.095389
  20 H :    0.051896    0.093699
Sum of atomic charges         :   -0.0000000

LOEWDIN ATOMIC CHARGES AND SPIN POPULATIONS
-------------------------------------------
   0 C :   -0.006566    1.005316
   1 C :   -0.039216   -0.046672
   2 H :    0.006085   -0.016235
   3 H :    0.006131   -0.016233
   4 C :   -0.019078    0.047857
   5 H :    0.016166    0.010809
   6 H :    0.016246    0.010669
   7 C :   -0.023072    0.003823
   8 H :    0.010254   -0.000606
   9 H :    0.009817   -0.000895
  10 H :    0.009730   -0.000418
  11 H :    0.010206   -0.002301
  12 C :   -0.018134   -0.045070
  13 H :    0.011150   -0.001651
  14 H :    0.009968    0.000825
  15 C :   -0.038322    0.049199
  16 H :    0.019297   -0.021521
  17 H :    0.015835   -0.004617
  18 C :   -0.008933   -1.005625
  19 H :    0.006717    0.016635
  20 H :    0.005718    0.016710

  Mayer bond orders larger than 0.100000
B(  0-C ,  1-C ) :   1.0125 B(  0-C ,  2-H ) :   0.9764 B(  0-C ,  3-H ) :   0.9764
B(  1-C ,  4-C ) :   1.0205 B(  1-C ,  5-H ) :   0.9739 B(  1-C ,  6-H ) :   0.9738
B(  4-C ,  7-C ) :   1.0305 B(  4-C ,  8-H ) :   0.9715 B(  4-C ,  9-H ) :   0.9720
B(  7-C , 10-H ) :   0.9706 B(  7-C , 11-H ) :   0.9702 B(  7-C , 12-C ) :   1.0160
B( 12-C , 13-H ) :   0.9738 B( 12-C , 14-H ) :   0.9713 B( 12-C , 15-C ) :   1.0416
B( 15-C , 16-H ) :   0.9774 B( 15-C , 17-H ) :   0.9746 B( 15-C , 18-C ) :   0.9963
B( 18-C , 19-H ) :   0.9768 B( 18-C , 20-H ) :   0.9758

FINAL SINGLE POINT ENERGY      -272.945038786280

DIPOLE MOMENT
-------------
                                X             Y             Z
Electronic contribution:      0.08506       0.14078      -0.00023
Nuclear contribution   :     -0.08888      -0.22844      -0.02714
                        -----------------------------------------
Total Dipole Moment    :     -0.00381      -0.08766      -0.02737
                        -----------------------------------------
Magnitude (a.u.)       :      0.09192
Magnitude (Debye)      :      0.23364

Rotational constants in cm-1:     0.281333     0.028707     0.027530
Rotational constants in MHz :  8434.155340   860.619249   825.340837

                             ****ORCA TERMINATED NORMALLY****
TOTAL RUN TIME: 0 days 0 hours 0 minutes 22 seconds 982 msec
