 Gaussian 16, Revision A.03,
 Gaussian 16:  ES64L-G16RevA.03 25-Dec-2016

 ----------------------------------------------
 #p stable=opt 6-31g(d) nosymm guess=mix um062x
 ----------------------------------------------

 ---------------------------
 tBuOOH guess=mix stable=opt
 ---------------------------
 Symbolic Z-matrix:
 Charge =  0 Multiplicity = 1

                          Input orientation:
 ---------------------------------------------------------------------
 Center     Atomic      Atomic             Coordinates (Angstroms)
 Number     Number       Type             X           Y           Z
 ---------------------------------------------------------------------
      1          6           0       -3.595094   -0.401084    0.450212
      2          6           0       -2.073081   -0.374814    0.358389
      3          1           0       -3.984630    0.620104    0.491617
      4          1           0       -4.020375   -0.901351   -0.422755
      5          1           0       -3.912427   -0.935728    1.350968
      6          6           0       -1.490255   -1.782526    0.270880
      7          6           0       -1.460815    0.405004    1.517128
      8          1           0       -0.402350   -1.735121    0.155019
      9          1           0       -1.715054   -2.345319    1.181736
     10          1           0       -1.916752   -2.323798   -0.577719
     11          1           0       -1.714814   -0.077084    2.465392
     12          1           0       -0.371766    0.441750    1.422586
     13          1           0       -1.845481    1.428409    1.529441
     14          8           0       -1.665776    0.401145   -0.780699
     15          8           0       -2.366826   -0.406064   -2.351350
     16          1           0       -1.555936   -0.763985   -2.747392
 ---------------------------------------------------------------------

 SCF Done:  E(UM062X) =  -308.590958067     A.U. after   36 cycles
 SCF Done:  E(UM062X) =  -308.594236794     a.u. after    6 cycles

 Alpha  occ. eigenvalues --  -19.69732 -19.67857 -10.60663 -10.54725 -10.53524
 Alpha  occ. eigenvalues --  -10.52965  -1.14092  -1.04778  -0.88401  -0.79017
 Alpha  occ. eigenvalues --   -0.78187  -0.62732  -0.54725  -0.53565  -0.52764
 Alpha  occ. eigenvalues --   -0.50537  -0.47507  -0.46089  -0.43650  -0.43163
 Alpha  occ. eigenvalues --   -0.42842  -0.41832  -0.37852  -0.36484  -0.35059
 Alpha virt. eigenvalues --   -0.04813   0.11870   0.15479   0.16221   0.19054
 Alpha virt. eigenvalues --    0.19969   0.21179   0.21702   0.23909   0.24441
 Alpha virt. eigenvalues --    0.25060   0.27358   0.28047   0.29457   0.29979

  Beta  occ. eigenvalues --  -19.68864 -19.68845 -10.60692 -10.54656 -10.53517
  Beta  occ. eigenvalues --  -10.52952  -1.13085  -1.06767  -0.87656  -0.78749
  Beta  occ. eigenvalues --   -0.78130  -0.62278  -0.54376  -0.53369  -0.52438
  Beta  occ. eigenvalues --   -0.51136  -0.46978  -0.45927  -0.44779  -0.43124
  Beta  occ. eigenvalues --   -0.41590  -0.41224  -0.39953  -0.38736  -0.33675
  Beta virt. eigenvalues --   -0.05060   0.11686   0.15129   0.16314   0.19083
  Beta virt. eigenvalues --    0.20000   0.21204   0.21683   0.24079   0.24485
  Beta virt. eigenvalues --    0.25102   0.27402   0.28332   0.29815   0.29977

 Mulliken charges and spin densities:
               1          2
     1  C   -0.469155   0.010721
     2  C    0.256505  -0.034289
     3  H    0.167982  -0.000436
     4  H    0.188750   0.000124
     5  H    0.147541  -0.001088
     6  C   -0.480662   0.006259
     7  C   -0.487959   0.034478
     8  H    0.160462  -0.000285
     9  H    0.154529  -0.001240
    10  H    0.172291   0.000433
    11  H    0.173623   0.012921
    12  H    0.176006  -0.001426
    13  H    0.181923  -0.001428
    14  O   -0.304682   0.617010
    15  O   -0.457815  -0.667300
    16  H    0.420660   0.025545
 Sum of Mulliken charges =   0.00000   0.00000

 Dipole moment (field-independent basis, Debye):
    X=              0.9308    Y=             -1.4206    Z=              1.1897  Tot=              2.0736
 Quadrupole moment (field-independent basis, Debye-Ang):
   XX=            -41.4720   YY=            -37.5071   ZZ=            -35.1512
   XY=              2.0036   XZ=             -5.4173   YZ=              3.0921

 1\1\GINC-CNODE12\Stability\UM062X\6-31G(d)\C4H10O2\LCZ\03-Apr-2022\0\\
 #p stable=opt 6-31g(d) nosymm guess=mix um062x\\tBuOOH guess=mix stabl
 e=opt\\0,1\C,0,-3.59509438,-0.40108447,0.45021209\C,0,-2.07308138,-0.3
 7481447,0.35838909\H,0,-3.98463038,0.62010353,0.49161709\H,0,-4.020375
 38,-0.90135147,-0.42275491\H,0,-3.91242738,-0.93572847,1.35096809\C,0,
 -1.49025538,-1.78252647,0.27088009\C,0,-1.46081538,0.40500353,1.517128
 09\H,0,-0.40235038,-1.73512147,0.15501909\H,0,-1.71505438,-2.34531947,
 1.18173609\H,0,-1.91675238,-2.32379847,-0.57771891\H,0,-1.71481438,-0.

 Normal termination of Gaussian 16 at Sun Apr  3 10:29:05 2022.
