 Gaussian 16, Revision A.03,
 Gaussian 16:  ES64L-G16RevA.03 25-Dec-2016

 -----------------------------------
 #p UM062X/6-31G(d) nosymm guess=mix
 -----------------------------------

 ----------------
 tBuOOH guess=mix
 ----------------
 Symbolic Z-matrix:
 Charge =  0 Multiplicity = 1

                          Input orientation:
 ---------------------------------------------------------------------
 Center     Atomic      Atomic             Coordinates (Angstroms)
 Number     Number       Type             X           Y           Z
 ---------------------------------------------------------------------
      1          6           0       -3.595094   -0.401084    0.450212
      2          6           0       -2.073081   -0.374814    0.358389
      3          1           0       -3.984630    0.620104    0.491617
      4          1           0       -4.020375   -0.901351   -0.422755
      5          1           0       -3.912427   -0.935728    1.350968
      6          6           0       -1.490255   -1.782526    0.270880
      7          6           0       -1.460815    0.405004    1.517128
      8          1           0       -0.402350   -1.735121    0.155019
      9          1           0       -1.715054   -2.345319    1.181736
     10          1           0       -1.916752   -2.323798   -0.577719
     11          1           0       -1.714814   -0.077084    2.465392
     12          1           0       -0.371766    0.441750    1.422586
     13          1           0       -1.845481    1.428409    1.529441
     14          8           0       -1.665776    0.401145   -0.780699
     15          8           0       -2.366826   -0.406064   -2.351350
     16          1           0       -1.555936   -0.763985   -2.747392
 ---------------------------------------------------------------------

 SCF Done:  E(UM062X) =  -308.590958067     A.U. after   36 cycles

 Alpha  occ. eigenvalues --  -19.70900 -19.68977 -10.61037 -10.54992 -10.53665
 Alpha  occ. eigenvalues --  -10.53015  -1.13720  -1.06254  -0.88305  -0.79081
 Alpha  occ. eigenvalues --   -0.78273  -0.62733  -0.54299  -0.53582  -0.52787
 Alpha  occ. eigenvalues --   -0.50944  -0.47224  -0.46162  -0.43875  -0.43267
 Alpha  occ. eigenvalues --   -0.42109  -0.41791  -0.38528  -0.36860  -0.34797
 Alpha virt. eigenvalues --   -0.07720   0.11755   0.15326   0.16114   0.18934
 Alpha virt. eigenvalues --    0.19892   0.21133   0.21624   0.23822   0.24377
 Alpha virt. eigenvalues --    0.24929   0.27292   0.28009   0.29406   0.29821

  Beta  occ. eigenvalues --  -19.70900 -19.68977 -10.61037 -10.54992 -10.53665
  Beta  occ. eigenvalues --  -10.53015  -1.13720  -1.06254  -0.88305  -0.79081
  Beta  occ. eigenvalues --   -0.78273  -0.62733  -0.54299  -0.53582  -0.52787
  Beta  occ. eigenvalues --   -0.50944  -0.47224  -0.46162  -0.43875  -0.43267
  Beta  occ. eigenvalues --   -0.42109  -0.41791  -0.38528  -0.36860  -0.34797
  Beta virt. eigenvalues --   -0.07720   0.11755   0.15326   0.16114   0.18934
  Beta virt. eigenvalues --    0.19892   0.21133   0.21624   0.23822   0.24377
  Beta virt. eigenvalues --    0.24929   0.27292   0.28009   0.29406   0.29821

 Mulliken charges and spin densities:
               1          2
     1  C   -0.469372  -0.000000
     2  C    0.261157  -0.000000
     3  H    0.168245   0.000000
     4  H    0.191857   0.000000
     5  H    0.147105   0.000000
     6  C   -0.480795   0.000000
     7  C   -0.488131   0.000000
     8  H    0.161404  -0.000000
     9  H    0.154918  -0.000000
    10  H    0.175235  -0.000000
    11  H    0.176939   0.000000
    12  H    0.178297   0.000000
    13  H    0.183962   0.000000
    14  O   -0.304321   0.000000
    15  O   -0.482697  -0.000000
    16  H    0.426198  -0.000000
 Sum of Mulliken charges =  -0.00000  -0.00000

 Dipole moment (field-independent basis, Debye):
    X=              0.9829    Y=             -1.4269    Z=              1.4091  Tot=              2.2333
 Quadrupole moment (field-independent basis, Debye-Ang):
   XX=            -41.7063   YY=            -37.4321   ZZ=            -35.3794
   XY=              1.9335   XZ=             -5.9775   YZ=              3.0505

 Normal termination of Gaussian 16 at Sun Apr  3 09:59:55 2022.
