 Gaussian 16, Revision A.03,
 Gaussian 16:  ES64L-G16RevA.03 25-Dec-2016

 ----------------
 #p B3LYP/cc-pVTZ
 ----------------

 ---------------------------------------
 3,8-dicl-dibenzene SP RKS B3LYP cc-pVTZ
 ---------------------------------------
 Symbolic Z-matrix:
 Charge =  0 Multiplicity = 1

                         Standard orientation:
 ---------------------------------------------------------------------
 Center     Atomic      Atomic             Coordinates (Angstroms)
 Number     Number       Type             X           Y           Z
 ---------------------------------------------------------------------
      1          6           0        2.730812   -0.022491    1.452760
      2          6           0        1.349615   -0.011465    1.322312
      3          6           0        0.746550   -0.005826    0.066646
      4          6           0        1.562496   -0.011510   -1.062343
      5          6           0        2.944960   -0.022535   -0.946075
      6          6           0        3.520366   -0.028168    0.314268
      7          1           0        3.191814   -0.026765    2.429874
      8          1           0        0.733622   -0.007147    2.211768
      9          1           0        1.113794   -0.007226   -2.046846
     10          1           0        3.571749   -0.026843   -1.826081
     11          6           0       -0.746572    0.005775   -0.066648
     12          6           0       -1.446629    1.208552   -0.129164
     13          6           0       -1.465504   -1.185565   -0.130806
     14          6           0       -2.828364    1.226701   -0.252514
     15          1           0       -0.906707    2.144903   -0.080981
     16          6           0       -2.847410   -1.181634   -0.254171
     17          1           0       -0.940500   -2.130432   -0.083921
     18          6           0       -3.520327    0.027935   -0.314265
     19          1           0       -3.365065    2.163155   -0.300443
     20          1           0       -3.398825   -2.109435   -0.303380
     21         17           0        5.254105   -0.041683    0.469042
     22         17           0       -5.254096    0.041753   -0.469041
 ---------------------------------------------------------------------

 SCF Done:  E(RB3LYP) =  -1382.72614821     A.U. after   13 cycles

 The electronic state is 1-A.
 Alpha  occ. eigenvalues -- -101.56537-101.56537 -10.24630 -10.24630 -10.20373
 Alpha  occ. eigenvalues --  -10.20345 -10.19673 -10.19673 -10.19671 -10.19671
 Alpha  occ. eigenvalues --  -10.19560 -10.19559 -10.19558 -10.19558  -9.47101
 Alpha  occ. eigenvalues --   -9.47100  -7.23397  -7.23397  -7.22534  -7.22533
 Alpha  occ. eigenvalues --   -7.22492  -7.22492  -0.90740  -0.90135  -0.86309
 Alpha  occ. eigenvalues --   -0.83986  -0.77333  -0.77066  -0.77066  -0.72065
 Alpha  occ. eigenvalues --   -0.63355  -0.63354  -0.62687  -0.59477  -0.54668
 Alpha  occ. eigenvalues --   -0.50688  -0.48843  -0.48843  -0.47881  -0.46607
 Alpha  occ. eigenvalues --   -0.44372  -0.44372  -0.43950  -0.40864  -0.40864
 Alpha  occ. eigenvalues --   -0.40164  -0.37452  -0.37452  -0.36015  -0.34168
 Alpha  occ. eigenvalues --   -0.34168  -0.32022  -0.32022  -0.28054  -0.27470
 Alpha  occ. eigenvalues --   -0.25620  -0.25619
 Alpha virt. eigenvalues --   -0.04145  -0.02816  -0.02816  -0.01937   0.01739
 Alpha virt. eigenvalues --    0.01754   0.05875   0.06408   0.06409   0.06483
 Alpha virt. eigenvalues --    0.08251   0.08966   0.11028   0.11028   0.12285

 Mulliken charges:
               1
     1  C   -0.113219
     2  C   -0.095093
     3  C   -0.000937
     4  C   -0.095055
     5  C   -0.113222
     6  C    0.069717
     7  H    0.121889
     8  H    0.112596
     9  H    0.112597
    10  H    0.121887
    11  C   -0.000906
    12  C   -0.095064
    13  C   -0.095075
    14  C   -0.113238
    15  H    0.112585
    16  C   -0.113243
    17  H    0.112585
    18  C    0.069781
    19  H    0.121879
    20  H    0.121876
    21  Cl  -0.121161
    22  Cl  -0.121181
 Sum of Mulliken charges =  -0.00000

 Dipole moment (field-independent basis, Debye):
    X=              0.0002    Y=              0.0000    Z=              0.0000  Tot=              0.0002
 Quadrupole moment (field-independent basis, Debye-Ang):
   XX=           -110.8533   YY=            -91.2757   ZZ=            -91.4299
   XY=              0.1560   XZ=             -1.7478   YZ=              0.0139

 Normal termination of Gaussian 16 at Wed May  4 15:01:48 2022.
