                         Program Version 5.0.0 -  RELEASE  -
|  1> ! RHF def2-QZVP VeryTightSCF
|  2>
|  3> %pal
|  4>     nprocs 16
|  5> end
|  6>
|  7> %scf
|  8>     STABPerform true
|  9> end
| 10>
| 11> *xyz 2 1
| 12>  Fe                 6.20397196    1.03714637    0.17096759
| 13>  O                  8.02343961    0.99562593    0.15635557
| 14>  O                  6.24694430   -0.78162449    0.11972374
| 15>  O                  6.22607513    1.15774049   -1.64489818
| 16>  O                  4.38440248    1.01816527    0.20570458
| 17>  O                  6.16557932    2.85626904    0.21242489
| 18>  O                  6.16850601    1.06001114    1.99047834
| 19>  H                  4.06545864    1.78648828    0.68482314
| 20>  H                  4.08101507    0.21943896    0.64341723
| 21>  H                  6.97846238    3.18466572    0.60354733
| 22>  H                  5.41693185    3.14865831    0.73743487
| 23>  H                  6.90726982    0.55047930    2.33136739
| 24>  H                  5.34491271    0.67543823    2.29934360
| 25>  H                  8.36474659    1.75961228    0.62692374
| 26>  H                  8.32866067    0.19290442    0.58539903
| 27>  H                  7.07410906   -1.09285932    0.49459883
| 28>  H                  5.51267410   -1.13351772    0.62826915
| 29>  H                  6.97521418    0.66593956   -1.98916919
| 30>  H                  5.41263500    0.79176715   -1.99983292
| 31> *
| 32>
| 33>
| 34>                          ****END OF INPUT****

CARTESIAN COORDINATES (ANGSTROEM)
---------------------------------
  Fe     6.203972    1.037146    0.170968
  O      8.023440    0.995626    0.156356
  O      6.246944   -0.781624    0.119724
  O      6.226075    1.157740   -1.644898
  O      4.384402    1.018165    0.205705
  O      6.165579    2.856269    0.212425
  O      6.168506    1.060011    1.990478
  H      4.065459    1.786488    0.684823
  H      4.081015    0.219439    0.643417
  H      6.978462    3.184666    0.603547
  H      5.416932    3.148658    0.737435
  H      6.907270    0.550479    2.331367
  H      5.344913    0.675438    2.299344
  H      8.364747    1.759612    0.626924
  H      8.328661    0.192904    0.585399
  H      7.074109   -1.092859    0.494599
  H      5.512674   -1.133518    0.628269
  H      6.975214    0.665940   -1.989169
  H      5.412635    0.791767   -1.999833

 Total Charge           Charge          ....    2
 Multiplicity           Mult            ....    1
 Number of Electrons    NEL             ....   84
 Basis Dimension        Dim             ....  786
FINAL SINGLE POINT ENERGY         0.000000000000   (Wavefunction not fully converged!)
                             ****ORCA TERMINATED NORMALLY****
TOTAL RUN TIME: 0 days 0 hours 44 minutes 32 seconds 617 msec
