                         Program Version 5.0.0 -  RELEASE  -
|  1> ! def2-SVP pal4
|  2> ! MOread
|  3>
|  4> %moinp  "CH2-ROHF.gbw"
|  5>
|  6> %casscf
|  7>     mult        1
|  8>     nel         2
|  9>     norb        2
| 10>     NRoots      2
| 11> end
| 12>
| 13> *xyz 0 3
| 14>  C   -0.56828011888064      0.21526016701941      0.00000000000000
| 15>  H   -0.02093310180940     -0.71582241410459      0.00000000000000
| 16>  H   -1.62855716930996      0.42096895708518      0.00000000000000
| 17> *
| 18>
| 19>                          ****END OF INPUT****

CARTESIAN COORDINATES (ANGSTROEM)
---------------------------------
  C     -0.568280    0.215260    0.000000
  H     -0.020933   -0.715822    0.000000
  H     -1.628557    0.420969    0.000000

 Total Charge           Charge          ....    0
 Multiplicity           Mult            ....    3
 Number of Electrons    NEL             ....    8
 Basis Dimension        Dim             ....   24

ORBITAL ENERGIES
----------------

  NO   OCC          E(Eh)            E(eV)
   0   2.0000     -11.268562      -306.6332
   1   2.0000      -0.859019       -23.3751
   2   2.0000      -0.610090       -16.6014
   3   1.3927      -0.230364        -6.2685
   4   0.6073      -0.036493        -0.9930
   5   0.0000       0.208830         5.6826
   6   0.0000       0.260851         7.0981
   7   0.0000       0.568349        15.4655
   8   0.0000       0.689108        18.7516
   9   0.0000       0.692150        18.8344

MULLIKEN ATOMIC CHARGES
-----------------------
   0 C :   -0.204636
   1 H :    0.102318
   2 H :    0.102318
Sum of atomic charges:    0.0000000

LOEWDIN ATOMIC CHARGES
----------------------
   0 C :   -0.026905
   1 H :    0.013453
   2 H :    0.013453

  Mayer bond orders larger than 0.100000
B(  0-C ,  1-H ) :   0.9428 B(  0-C ,  2-H ) :   0.9428

FINAL SINGLE POINT ENERGY       -38.828158866699

DIPOLE MOMENT
-------------
                                X             Y             Z
Electronic contribution:      0.11940       0.16885      -0.00000
Nuclear contribution   :     -0.41206      -0.58272       0.00000
                        -----------------------------------------
Total Dipole Moment    :     -0.29266      -0.41387      -0.00000
                        -----------------------------------------
Magnitude (a.u.)       :      0.50690
Magnitude (Debye)      :      1.28842

Rotational constants in cm-1:    49.491373     8.627771     7.346981
Rotational constants in MHz : 1483714.044143 258654.059176 220256.936203

                             ****ORCA TERMINATED NORMALLY****
TOTAL RUN TIME: 0 days 0 hours 0 minutes 4 seconds 726 msec
