                         Program Version 5.0.0 -  RELEASE  -
|  1> ! ROHF def2-SVP pal4
|  2>
|  3> *xyz 0 3
|  4>  C   -0.56828011888064      0.21526016701941      0.00000000000000
|  5>  H   -0.02093310180940     -0.71582241410459      0.00000000000000
|  6>  H   -1.62855716930996      0.42096895708518      0.00000000000000
|  7> *
|  8>
|  9>                          ****END OF INPUT****

CARTESIAN COORDINATES (ANGSTROEM)
---------------------------------
  C     -0.568280    0.215260    0.000000
  H     -0.020933   -0.715822    0.000000
  H     -1.628557    0.420969    0.000000

 Total Charge           Charge          ....    0
 Multiplicity           Mult            ....    3
 Number of Electrons    NEL             ....    8
 Basis Dimension        Dim             ....   24

ORBITAL ENERGIES
----------------

  NO   OCC          E(Eh)            E(eV)
   0   2.0000     -11.247871      -306.0701
   1   2.0000      -0.841011       -22.8851
   2   2.0000      -0.598757       -16.2930
   3   1.0000      -0.472100       -12.8465
   4   1.0000      -0.405074       -11.0226
   5   0.0000       0.205174         5.5831
   6   0.0000       0.257139         6.9971
   7   0.0000       0.556236        15.1359
   8   0.0000       0.623116        16.9559
   9   0.0000       0.668659        18.1951

MULLIKEN ATOMIC CHARGES AND SPIN POPULATIONS
--------------------------------------------
   0 C :   -0.170881    1.955646
   1 H :    0.085440    0.022177
   2 H :    0.085441    0.022177
Sum of atomic charges         :    0.0000000

LOEWDIN ATOMIC CHARGES AND SPIN POPULATIONS
-------------------------------------------
   0 C :   -0.012477    1.909737
   1 H :    0.006238    0.045131
   2 H :    0.006239    0.045131

  Mayer bond orders larger than 0.100000
B(  0-C ,  1-H ) :   0.9781 B(  0-C ,  2-H ) :   0.9781

FINAL SINGLE POINT ENERGY       -38.889390486260

DIPOLE MOMENT
-------------
                                X             Y             Z
Electronic contribution:      0.28386       0.40143       0.00000
Nuclear contribution   :     -0.41206      -0.58272       0.00000
                        -----------------------------------------
Total Dipole Moment    :     -0.12819      -0.18129       0.00000
                        -----------------------------------------
Magnitude (a.u.)       :      0.22203
Magnitude (Debye)      :      0.56437

Rotational constants in cm-1:    49.491373     8.627771     7.346981
Rotational constants in MHz : 1483714.044143 258654.059176 220256.936203

                             ****ORCA TERMINATED NORMALLY****
TOTAL RUN TIME: 0 days 0 hours 0 minutes 1 seconds 231 msec
