                         Program Version 5.0.0 -  RELEASE  -
|  1> ! UKS BP86 def2-TZVP Slowconv NoRI VeryTightSCF
|  2>
|  3> %pal
|  4>     nprocs      16
|  5> end
|  6>
|  7> %scf
|  8>     MaxIter         500
|  9> end
| 10>
| 11> * xyz +1 12
| 12>  C		41.75403		53.28594		36.47089
| 13>  N		42.78753		53.11575		35.57581
| 14>  H		43.16994		53.82901		34.93449
| 15>  C		43.13114		51.81325		35.56784
| 16>  H		43.90950		51.37773		34.94414
| 17>  N		42.37607		51.13571		36.42691
| 18>  C		41.50665		52.03904		37.00144
| 19>  H		40.82544		51.73164		37.79505
| 20>  C		40.09202		47.27196		33.79593
| 21>  N		40.01563		48.58847		33.38565
| 22>  H		39.43866		49.00474		32.64677
| 23>  C		40.81932		49.32188		34.18498
| 24>  H		40.95055		50.39694		34.07925
| 25>  N		41.40562		48.54888		35.08628
| 26>  C		40.96397		47.26826		34.85989
| 27>  H		41.28483		46.44894		35.49587
| 28>  C		38.24865		48.45183		37.81335
| 29>  H		38.06635		49.38048		37.25970
| 30>  H		37.98920		48.64643		38.86583
| 31>  C		39.73354		48.12878		37.79602
| 32>  O		40.09424		46.93213		38.07281
| 33>  O		40.52803		49.07737		37.61504
| 34>  C		38.64939		43.85153		40.73232
| 35>  N		39.75318		43.46223		41.46909
| 36>  H		39.79405		42.88321		42.31374
| 37>  C		40.85619		43.95040		40.87085
| 38>  H		41.86208		43.73437		41.21668
| 39>  N		40.53337		44.65182		39.79100
| 40>  C		39.15956		44.58428		39.68656
| 41>  H		38.64310		45.07085		38.86947
| 42>  C		42.78301		43.20389		35.50791
| 43>  N		41.70402		42.56435		36.07633
| 44>  H		41.38662		41.60923		35.87328
| 45>  C		41.22751		43.34662		37.06020
| 46>  H		40.41347		43.06024		37.71905
| 47>  N		41.93585		44.46949		37.14463
| 48>  C		42.92016		44.39135		36.18173
| 49>  H		43.65411		45.17925		36.03284
| 50>  C		45.76587		48.09327		34.01347
| 51>  H		45.12996		47.64758		33.22625
| 52>  H		46.66030		47.46138		34.10695
| 53>  C		44.95577		48.01686		35.29973
| 54>  O		44.14613		48.94934		35.56215
| 55>  O		45.08740		46.97457		36.01411
| 56>  Fe		42.54033		49.05049		36.87039
| 57>  Fe		41.81627		46.03465		38.62397
| 58>  O		42.83867		47.18229		37.39246
| 59>  H		43.73492		46.94286		37.02348
| 60>  C		43.49167		47.06037		40.65787
| 61>  C		43.62987		47.67506		42.05581
| 62>  C		45.10300		47.59033		42.50474
| 63>  C		45.62301		46.15243		42.46240
| 64>  C		45.40189		45.47910		41.08480
| 65>  C		43.92995		45.59891		40.70191
| 66>  O		42.19103		47.12374		40.15874
| 67>  O		42.77905		47.01209		42.97498
| 68>  O		45.28716		48.11554		43.80319
| 69>  O		46.99767		46.17794		42.81101
| 70>  O		45.74511		44.11656		41.09014
| 71>  O		43.60430		45.05282		39.42323
| 72>  H		44.17197		47.60667		39.96927
| 73>  H		43.37341		48.74685		41.99147
| 74>  H		45.70505		48.16527		41.77049
| 75>  H		45.03923		45.57203		43.19495
| 76>  H		46.01899		46.03720		40.34589
| 77>  H		43.33990		45.09204		41.48188
| 78>  H		42.10859		47.68790		43.28977
| 79>  H		45.23130		49.11516		43.72228
| 80>  H		47.38229		45.25422		42.73309
| 81>  H		46.61333		43.98248		41.55557
| 82>  H		43.51869		44.03919		39.45235
| 83>  O		42.87964		49.71258		38.89705
| 84>  O		44.05578		49.61518		38.40447
| 85>  H		41.30382		54.25088		36.70388
| 86>  H		39.55092		46.42585		33.37239
| 87>  H		37.60102		47.66437		37.42791
| 88>  H		37.60539		43.64548		40.96829
| 89>  H		43.42804		42.77098		34.74333
| 90>  H		46.04434		49.08634		33.66087
| 91> *
| 92>
| 93>
| 94>
| 95>                          ****END OF INPUT****

CARTESIAN COORDINATES (ANGSTROEM)
---------------------------------
  C     41.754030   53.285940   36.470890
  N     42.787530   53.115750   35.575810
  H     43.169940   53.829010   34.934490
  C     43.131140   51.813250   35.567840
  H     43.909500   51.377730   34.944140
  N     42.376070   51.135710   36.426910
  C     41.506650   52.039040   37.001440
  H     40.825440   51.731640   37.795050
  C     40.092020   47.271960   33.795930
  N     40.015630   48.588470   33.385650
  H     39.438660   49.004740   32.646770
  C     40.819320   49.321880   34.184980
  H     40.950550   50.396940   34.079250
  N     41.405620   48.548880   35.086280
  C     40.963970   47.268260   34.859890
  H     41.284830   46.448940   35.495870
  C     38.248650   48.451830   37.813350
  H     38.066350   49.380480   37.259700
  H     37.989200   48.646430   38.865830
  C     39.733540   48.128780   37.796020
  O     40.094240   46.932130   38.072810
  O     40.528030   49.077370   37.615040
  C     38.649390   43.851530   40.732320
  N     39.753180   43.462230   41.469090
  H     39.794050   42.883210   42.313740
  C     40.856190   43.950400   40.870850
  H     41.862080   43.734370   41.216680
  N     40.533370   44.651820   39.791000
  C     39.159560   44.584280   39.686560
  H     38.643100   45.070850   38.869470
  C     42.783010   43.203890   35.507910
  N     41.704020   42.564350   36.076330
  H     41.386620   41.609230   35.873280
  C     41.227510   43.346620   37.060200
  H     40.413470   43.060240   37.719050
  N     41.935850   44.469490   37.144630
  C     42.920160   44.391350   36.181730
  H     43.654110   45.179250   36.032840
  C     45.765870   48.093270   34.013470
  H     45.129960   47.647580   33.226250
  H     46.660300   47.461380   34.106950
  C     44.955770   48.016860   35.299730
  O     44.146130   48.949340   35.562150
  O     45.087400   46.974570   36.014110
  Fe    42.540330   49.050490   36.870390
  Fe    41.816270   46.034650   38.623970
  O     42.838670   47.182290   37.392460
  H     43.734920   46.942860   37.023480
  C     43.491670   47.060370   40.657870
  C     43.629870   47.675060   42.055810
  C     45.103000   47.590330   42.504740
  C     45.623010   46.152430   42.462400
  C     45.401890   45.479100   41.084800
  C     43.929950   45.598910   40.701910
  O     42.191030   47.123740   40.158740
  O     42.779050   47.012090   42.974980
  O     45.287160   48.115540   43.803190
  O     46.997670   46.177940   42.811010
  O     45.745110   44.116560   41.090140
  O     43.604300   45.052820   39.423230
  H     44.171970   47.606670   39.969270
  H     43.373410   48.746850   41.991470
  H     45.705050   48.165270   41.770490
  H     45.039230   45.572030   43.194950
  H     46.018990   46.037200   40.345890
  H     43.339900   45.092040   41.481880
  H     42.108590   47.687900   43.289770
  H     45.231300   49.115160   43.722280
  H     47.382290   45.254220   42.733090
  H     46.613330   43.982480   41.555570
  H     43.518690   44.039190   39.452350
  O     42.879640   49.712580   38.897050
  O     44.055780   49.615180   38.404470
  H     41.303820   54.250880   36.703880
  H     39.550920   46.425850   33.372390
  H     37.601020   47.664370   37.427910
  H     37.605390   43.645480   40.968290
  H     43.428040   42.770980   34.743330
  H     46.044340   49.086340   33.660870

 Total Charge           Charge          ....    1
 Multiplicity           Mult            ....   12
 Number of Electrons    NEL             ....  377
 Basis Dimension        Dim             .... 1627

ORBITAL ENERGIES
----------------
                 SPIN UP ORBITALS
  NO   OCC          E(Eh)            E(eV)
   0   1.0000    -254.938059     -6937.2173
   1   1.0000    -254.911585     -6936.4969
   2   1.0000     -29.718159      -808.6722
   3   1.0000     -29.687164      -807.8288
   4   1.0000     -25.653454      -698.0660
   5   1.0000     -25.648645      -697.9351
   6   1.0000     -25.645605      -697.8524
   7   1.0000     -25.625980      -697.3184
   8   1.0000     -25.615757      -697.0402
   9   1.0000     -25.614715      -697.0118
  10   1.0000     -18.910730      -514.5871
  11   1.0000     -18.909914      -514.5649
  12   1.0000     -18.902079      -514.3517
  13   1.0000     -18.859107      -513.1824
  14   1.0000     -18.843649      -512.7617
  15   1.0000     -18.839838      -512.6580
  16   1.0000     -18.839416      -512.6466
  17   1.0000     -18.831295      -512.4256
  18   1.0000     -18.829610      -512.3797
  19   1.0000     -18.822166      -512.1772
  20   1.0000     -18.814799      -511.9767
  21   1.0000     -18.810221      -511.8521
  22   1.0000     -18.788480      -511.2605
  23   1.0000     -14.175194      -385.7267
  24   1.0000     -14.174751      -385.7146
  25   1.0000     -14.162009      -385.3679
  26   1.0000     -14.160297      -385.3213
  27   1.0000     -14.118060      -384.1720
  28   1.0000     -14.117295      -384.1511
  29   1.0000     -14.103888      -383.7863
  30   1.0000     -14.098229      -383.6323
  31   1.0000     -10.085902      -274.4513
  32   1.0000     -10.066728      -273.9296
  33   1.0000     -10.065642      -273.9000
  34   1.0000     -10.053683      -273.5746
  35   1.0000     -10.050185      -273.4794
  36   1.0000     -10.049130      -273.4507
  37   1.0000     -10.038047      -273.1491
  38   1.0000     -10.033903      -273.0364
  39   1.0000     -10.032197      -272.9900
  40   1.0000     -10.025247      -272.8008
  41   1.0000     -10.023539      -272.7544
  42   1.0000     -10.022780      -272.7337
  43   1.0000     -10.021631      -272.7024
  44   1.0000     -10.016586      -272.5652
  45   1.0000     -10.015135      -272.5257
  46   1.0000     -10.014240      -272.5013
  47   1.0000     -10.013032      -272.4685
  48   1.0000     -10.011650      -272.4309
  49   1.0000     -10.009793      -272.3803
  50   1.0000     -10.004553      -272.2377
  51   1.0000      -9.971702      -271.3438
  52   1.0000      -9.948553      -270.7139
  53   1.0000      -3.490225       -94.9739
  54   1.0000      -3.460598       -94.1677
  55   1.0000      -2.311184       -62.8905
  56   1.0000      -2.300833       -62.6088
  57   1.0000      -2.295140       -62.4539
  58   1.0000      -2.288341       -62.2689
  59   1.0000      -2.266953       -61.6869
  60   1.0000      -2.264338       -61.6158
  61   1.0000      -1.166254       -31.7354
  62   1.0000      -1.061037       -28.8723
  63   1.0000      -1.059402       -28.8278
  64   1.0000      -1.055792       -28.7296
  65   1.0000      -1.054948       -28.7066
  66   1.0000      -1.041782       -28.3483
  67   1.0000      -1.039393       -28.2833
  68   1.0000      -1.030946       -28.0535
  69   1.0000      -1.027403       -27.9570
  70   1.0000      -1.014797       -27.6140
  71   1.0000      -1.002047       -27.2671
  72   1.0000      -0.987475       -26.8706
  73   1.0000      -0.975068       -26.5329
  74   1.0000      -0.966439       -26.2981
  75   1.0000      -0.943903       -25.6849
  76   1.0000      -0.932590       -25.3771
  77   1.0000      -0.919434       -25.0191
  78   1.0000      -0.917039       -24.9539
  79   1.0000      -0.904834       -24.6218
  80   1.0000      -0.902157       -24.5489
  81   1.0000      -0.812678       -22.1141
  82   1.0000      -0.794583       -21.6217
  83   1.0000      -0.791206       -21.5298
  84   1.0000      -0.779141       -21.2015
  85   1.0000      -0.777733       -21.1632
  86   1.0000      -0.774809       -21.0836
  87   1.0000      -0.741701       -20.1827
  88   1.0000      -0.736367       -20.0376
  89   1.0000      -0.719792       -19.5865
  90   1.0000      -0.715069       -19.4580
  91   1.0000      -0.678562       -18.4646
  92   1.0000      -0.677632       -18.4393
  93   1.0000      -0.663981       -18.0678
  94   1.0000      -0.663527       -18.0555
  95   1.0000      -0.653184       -17.7740
  96   1.0000      -0.651024       -17.7153
  97   1.0000      -0.646537       -17.5932
  98   1.0000      -0.640190       -17.4205
  99   1.0000      -0.636034       -17.3074
 100   1.0000      -0.628331       -17.0978
 101   1.0000      -0.622472       -16.9383
 102   1.0000      -0.617121       -16.7927
 103   1.0000      -0.611351       -16.6357
 104   1.0000      -0.607261       -16.5244
 105   1.0000      -0.597131       -16.2488
 106   1.0000      -0.578536       -15.7428
 107   1.0000      -0.571721       -15.5573
 108   1.0000      -0.563877       -15.3439
 109   1.0000      -0.546976       -14.8840
 110   1.0000      -0.545775       -14.8513
 111   1.0000      -0.535516       -14.5721
 112   1.0000      -0.530442       -14.4341
 113   1.0000      -0.519378       -14.1330
 114   1.0000      -0.517433       -14.0801
 115   1.0000      -0.514601       -14.0030
 116   1.0000      -0.512926       -13.9574
 117   1.0000      -0.511699       -13.9240
 118   1.0000      -0.510826       -13.9003
 119   1.0000      -0.508174       -13.8281
 120   1.0000      -0.507649       -13.8138
 121   1.0000      -0.504555       -13.7296
 122   1.0000      -0.503127       -13.6908
 123   1.0000      -0.500912       -13.6305
 124   1.0000      -0.498838       -13.5741
 125   1.0000      -0.498192       -13.5565
 126   1.0000      -0.496295       -13.5049
 127   1.0000      -0.491010       -13.3611
 128   1.0000      -0.489807       -13.3283
 129   1.0000      -0.489132       -13.3100
 130   1.0000      -0.488374       -13.2893
 131   1.0000      -0.487203       -13.2575
 132   1.0000      -0.486162       -13.2292
 133   1.0000      -0.481641       -13.1061
 134   1.0000      -0.480325       -13.0703
 135   1.0000      -0.477513       -12.9938
 136   1.0000      -0.470207       -12.7950
 137   1.0000      -0.467226       -12.7139
 138   1.0000      -0.466916       -12.7054
 139   1.0000      -0.465674       -12.6716
 140   1.0000      -0.458561       -12.4781
 141   1.0000      -0.454605       -12.3704
 142   1.0000      -0.453377       -12.3370
 143   1.0000      -0.451187       -12.2774
 144   1.0000      -0.449344       -12.2273
 145   1.0000      -0.437447       -11.9035
 146   1.0000      -0.434862       -11.8332
 147   1.0000      -0.431529       -11.7425
 148   1.0000      -0.424096       -11.5403
 149   1.0000      -0.420931       -11.4541
 150   1.0000      -0.417751       -11.3676
 151   1.0000      -0.416171       -11.3246
 152   1.0000      -0.409513       -11.1434
 153   1.0000      -0.407913       -11.0999
 154   1.0000      -0.405937       -11.0461
 155   1.0000      -0.402678       -10.9574
 156   1.0000      -0.400188       -10.8897
 157   1.0000      -0.398898       -10.8546
 158   1.0000      -0.387216       -10.5367
 159   1.0000      -0.382467       -10.4075
 160   1.0000      -0.380589       -10.3564
 161   1.0000      -0.377039       -10.2598
 162   1.0000      -0.375673       -10.2226
 163   1.0000      -0.371284       -10.1031
 164   1.0000      -0.369841       -10.0639
 165   1.0000      -0.367344        -9.9959
 166   1.0000      -0.364727        -9.9247
 167   1.0000      -0.361205        -9.8289
 168   1.0000      -0.359348        -9.7783
 169   1.0000      -0.356737        -9.7073
 170   1.0000      -0.349653        -9.5145
 171   1.0000      -0.342292        -9.3142
 172   1.0000      -0.337284        -9.1780
 173   1.0000      -0.332966        -9.0605
 174   1.0000      -0.326102        -8.8737
 175   1.0000      -0.322664        -8.7801
 176   1.0000      -0.320147        -8.7116
 177   1.0000      -0.317652        -8.6437
 178   1.0000      -0.311987        -8.4896
 179   1.0000      -0.311130        -8.4663
 180   1.0000      -0.308589        -8.3971
 181   1.0000      -0.307535        -8.3684
 182   1.0000      -0.305574        -8.3151
 183   1.0000      -0.299158        -8.1405
 184   1.0000      -0.296669        -8.0728
 185   1.0000      -0.292153        -7.9499
 186   1.0000      -0.289956        -7.8901
 187   1.0000      -0.287122        -7.8130
 188   1.0000      -0.274783        -7.4772
 189   1.0000      -0.271346        -7.3837
 190   1.0000      -0.270267        -7.3544
 191   1.0000      -0.262581        -7.1452
 192   1.0000      -0.250012        -6.8032
 193   1.0000      -0.244585        -6.6555
 194   0.0000      -0.136526        -3.7151
 195   0.0000      -0.132109        -3.5949
 196   0.0000      -0.120949        -3.2912
 197   0.0000      -0.113290        -3.0828
 198   0.0000      -0.105400        -2.8681

                 SPIN DOWN ORBITALS
  NO   OCC          E(Eh)            E(eV)
   0   1.0000    -254.937007     -6937.1886
   1   1.0000    -254.910628     -6936.4708
   2   1.0000     -29.640960      -806.5715
   3   1.0000     -29.611888      -805.7804
   4   1.0000     -25.593437      -696.4328
   5   1.0000     -25.590222      -696.3454
   6   1.0000     -25.588590      -696.3009
   7   1.0000     -25.565769      -695.6799
   8   1.0000     -25.560353      -695.5326
   9   1.0000     -25.559364      -695.5057
  10   1.0000     -18.900206      -514.3007
  11   1.0000     -18.890352      -514.0326
  12   1.0000     -18.889381      -514.0062
  13   1.0000     -18.859080      -513.1817
  14   1.0000     -18.843619      -512.7609
  15   1.0000     -18.839399      -512.6461
  16   1.0000     -18.836227      -512.5598
  17   1.0000     -18.831213      -512.4233
  18   1.0000     -18.826854      -512.3047
  19   1.0000     -18.812371      -511.9106
  20   1.0000     -18.807089      -511.7669
  21   1.0000     -18.806576      -511.7529
  22   1.0000     -18.787638      -511.2376
  23   1.0000     -14.175104      -385.7242
  24   1.0000     -14.174654      -385.7120
  25   1.0000     -14.161906      -385.3650
  26   1.0000     -14.160225      -385.3193
  27   1.0000     -14.116528      -384.1303
  28   1.0000     -14.115809      -384.1107
  29   1.0000     -14.102606      -383.7514
  30   1.0000     -14.096409      -383.5828
  31   1.0000     -10.085796      -274.4485
  32   1.0000     -10.066656      -273.9276
  33   1.0000     -10.065478      -273.8956
  34   1.0000     -10.053702      -273.5751
  35   1.0000     -10.050005      -273.4745
  36   1.0000     -10.049052      -273.4486
  37   1.0000     -10.038004      -273.1480
  38   1.0000     -10.033613      -273.0285
  39   1.0000     -10.032141      -272.9884
  40   1.0000     -10.025169      -272.7987
  41   1.0000     -10.023446      -272.7518
  42   1.0000     -10.022723      -272.7322
  43   1.0000     -10.021573      -272.7009
  44   1.0000     -10.016573      -272.5648
  45   1.0000     -10.015085      -272.5243
  46   1.0000     -10.013963      -272.4938
  47   1.0000     -10.012974      -272.4669
  48   1.0000     -10.011600      -272.4295
  49   1.0000     -10.009715      -272.3782
  50   1.0000     -10.004528      -272.2370
  51   1.0000      -9.971397      -271.3355
  52   1.0000      -9.948340      -270.7081
  53   1.0000      -3.319356       -90.3243
  54   1.0000      -3.293377       -89.6174
  55   1.0000      -2.139667       -58.2233
  56   1.0000      -2.133977       -58.0685
  57   1.0000      -2.131952       -58.0134
  58   1.0000      -2.113421       -57.5091
  59   1.0000      -2.109288       -57.3966
  60   1.0000      -2.106164       -57.3116
  61   1.0000      -1.130924       -30.7740
  62   1.0000      -1.058218       -28.7956
  63   1.0000      -1.054942       -28.7064
  64   1.0000      -1.054750       -28.7012
  65   1.0000      -1.054103       -28.6836
  66   1.0000      -1.041001       -28.3271
  67   1.0000      -1.038560       -28.2606
  68   1.0000      -1.030570       -28.0432
  69   1.0000      -1.023874       -27.8610
  70   1.0000      -1.014338       -27.6015
  71   1.0000      -1.001715       -27.2581
  72   1.0000      -0.987063       -26.8593
  73   1.0000      -0.968899       -26.3651
  74   1.0000      -0.950993       -25.8778
  75   1.0000      -0.935406       -25.4537
  76   1.0000      -0.922214       -25.0947
  77   1.0000      -0.917447       -24.9650
  78   1.0000      -0.915303       -24.9067
  79   1.0000      -0.903463       -24.5845
  80   1.0000      -0.900677       -24.5087
  81   1.0000      -0.810861       -22.0646
  82   1.0000      -0.794247       -21.6126
  83   1.0000      -0.790791       -21.5185
  84   1.0000      -0.778582       -21.1863
  85   1.0000      -0.777260       -21.1503
  86   1.0000      -0.740433       -20.1482
  87   1.0000      -0.735679       -20.0188
  88   1.0000      -0.725018       -19.7287
  89   1.0000      -0.717488       -19.5238
  90   1.0000      -0.714111       -19.4319
  91   1.0000      -0.677672       -18.4404
  92   1.0000      -0.676592       -18.4110
  93   1.0000      -0.662912       -18.0388
  94   1.0000      -0.662553       -18.0290
  95   1.0000      -0.652448       -17.7540
  96   1.0000      -0.650285       -17.6951
  97   1.0000      -0.645742       -17.5715
  98   1.0000      -0.639333       -17.3971
  99   1.0000      -0.635232       -17.2855
 100   1.0000      -0.627876       -17.0854
 101   1.0000      -0.622075       -16.9275
 102   1.0000      -0.614896       -16.7322
 103   1.0000      -0.610872       -16.6227
 104   1.0000      -0.606797       -16.5118
 105   1.0000      -0.596117       -16.2212
 106   1.0000      -0.571941       -15.5633
 107   1.0000      -0.570021       -15.5111
 108   1.0000      -0.562572       -15.3084
 109   1.0000      -0.546191       -14.8626
 110   1.0000      -0.539195       -14.6722
 111   1.0000      -0.534729       -14.5507
 112   1.0000      -0.523545       -14.2464
 113   1.0000      -0.516655       -14.0589
 114   1.0000      -0.514695       -14.0056
 115   1.0000      -0.512211       -13.9380
 116   1.0000      -0.510364       -13.8877
 117   1.0000      -0.507467       -13.8089
 118   1.0000      -0.505962       -13.7679
 119   1.0000      -0.505310       -13.7502
 120   1.0000      -0.501852       -13.6561
 121   1.0000      -0.501023       -13.6335
 122   1.0000      -0.498315       -13.5598
 123   1.0000      -0.497182       -13.5290
 124   1.0000      -0.496442       -13.5089
 125   1.0000      -0.494507       -13.4562
 126   1.0000      -0.488241       -13.2857
 127   1.0000      -0.487564       -13.2673
 128   1.0000      -0.485720       -13.2171
 129   1.0000      -0.482110       -13.1189
 130   1.0000      -0.481390       -13.0993
 131   1.0000      -0.478290       -13.0149
 132   1.0000      -0.474199       -12.9036
 133   1.0000      -0.468629       -12.7521
 134   1.0000      -0.467340       -12.7170
 135   1.0000      -0.465761       -12.6740
 136   1.0000      -0.464856       -12.6494
 137   1.0000      -0.459432       -12.5018
 138   1.0000      -0.456860       -12.4318
 139   1.0000      -0.452648       -12.3172
 140   1.0000      -0.451168       -12.2769
 141   1.0000      -0.447756       -12.1841
 142   1.0000      -0.442593       -12.0436
 143   1.0000      -0.438107       -11.9215
 144   1.0000      -0.432103       -11.7581
 145   1.0000      -0.427961       -11.6454
 146   1.0000      -0.423751       -11.5309
 147   1.0000      -0.415106       -11.2956
 148   1.0000      -0.413719       -11.2579
 149   1.0000      -0.411029       -11.1847
 150   1.0000      -0.405393       -11.0313
 151   1.0000      -0.401455       -10.9241
 152   1.0000      -0.398794       -10.8517
 153   1.0000      -0.397987       -10.8298
 154   1.0000      -0.388228       -10.5642
 155   1.0000      -0.382716       -10.4142
 156   1.0000      -0.381337       -10.3767
 157   1.0000      -0.377689       -10.2774
 158   1.0000      -0.375629       -10.2214
 159   1.0000      -0.369739       -10.0611
 160   1.0000      -0.367530       -10.0010
 161   1.0000      -0.362481        -9.8636
 162   1.0000      -0.360985        -9.8229
 163   1.0000      -0.359631        -9.7860
 164   1.0000      -0.342835        -9.3290
 165   1.0000      -0.339774        -9.2457
 166   1.0000      -0.335979        -9.1425
 167   1.0000      -0.329859        -8.9759
 168   1.0000      -0.324983        -8.8432
 169   1.0000      -0.320603        -8.7240
 170   1.0000      -0.318849        -8.6763
 171   1.0000      -0.316089        -8.6012
 172   1.0000      -0.313914        -8.5420
 173   1.0000      -0.309896        -8.4327
 174   1.0000      -0.308328        -8.3900
 175   1.0000      -0.306094        -8.3292
 176   1.0000      -0.303694        -8.2639
 177   1.0000      -0.300230        -8.1697
 178   1.0000      -0.297036        -8.0828
 179   1.0000      -0.285300        -7.7634
 180   1.0000      -0.278322        -7.5735
 181   1.0000      -0.272775        -7.4226
 182   1.0000      -0.254548        -6.9266
 183   0.0000      -0.231923        -6.3109
 184   0.0000      -0.226276        -6.1573
 185   0.0000      -0.218696        -5.9510
 186   0.0000      -0.212726        -5.7886
 187   0.0000      -0.200804        -5.4642

MULLIKEN ATOMIC CHARGES AND SPIN POPULATIONS
--------------------------------------------
   0 C :   -0.048639    0.006531
   1 N :   -0.182972    0.003469
   2 H :    0.254159    0.001933
   3 C :    0.011802    0.011495
   4 H :    0.194609    0.000340
   5 N :   -0.074818    0.023931
   6 C :   -0.110404    0.004693
   7 H :    0.165349    0.000759
   8 C :   -0.081890    0.003104
   9 N :   -0.193275    0.001776
  10 H :    0.247063    0.002476
  11 C :    0.020421    0.004577
  12 H :    0.176734    0.001051
  13 N :   -0.033417    0.037489
  14 C :   -0.109162    0.000823
  15 H :    0.184175    0.002719
  16 C :   -0.390585    0.015806
  17 H :    0.135623    0.001592
  18 H :    0.146560   -0.000869
  19 C :    0.432950    0.013793
  20 O :   -0.436574    0.103356
  21 O :   -0.368814    0.074743
  22 C :   -0.046754    0.001936
  23 N :   -0.196166    0.003201
  24 H :    0.255195    0.001673
  25 C :    0.050059    0.006269
  26 H :    0.162724    0.000422
  27 N :   -0.123725    0.026290
  28 C :   -0.123221    0.003115
  29 H :    0.169566    0.000336
  30 C :   -0.049355    0.003151
  31 N :   -0.193250    0.003299
  32 H :    0.252522    0.002256
  33 C :    0.024302    0.010508
  34 H :    0.194511    0.000419
  35 N :   -0.133735    0.027703
  36 C :   -0.151396    0.003467
  37 H :    0.217841    0.000003
  38 C :   -0.374693    0.011162
  39 H :    0.119536   -0.000164
  40 H :    0.141857    0.001465
  41 C :    0.367267    0.001928
  42 O :   -0.393919    0.089881
  43 O :   -0.487132    0.033754
  44 Fe:    0.546840    4.020737
  45 Fe:    0.563894    4.127912
  46 O :   -0.745718    0.282605
  47 H :    0.347372    0.005282
  48 C :    0.161252   -0.001373
  49 C :   -0.026162    0.013681
  50 C :    0.063907    0.003140
  51 C :    0.015574    0.001204
  52 C :   -0.000657    0.003106
  53 C :    0.036903    0.014798
  54 O :   -0.426617    0.381303
  55 O :   -0.423946    0.000909
  56 O :   -0.387729    0.003037
  57 O :   -0.358944    0.000993
  58 O :   -0.407249    0.000854
  59 O :   -0.390123    0.038405
  60 H :    0.122183    0.017297
  61 H :    0.108230    0.000298
  62 H :    0.090566   -0.000045
  63 H :    0.083971    0.000112
  64 H :    0.097400   -0.000037
  65 H :    0.088892    0.000972
  66 H :    0.317003    0.000016
  67 H :    0.302449   -0.000083
  68 H :    0.268447    0.000010
  69 H :    0.279478    0.000206
  70 H :    0.340273    0.004361
  71 O :   -0.103895    0.756898
  72 O :   -0.110121    0.769766
  73 H :    0.168593    0.000742
  74 H :    0.158107    0.001185
  75 H :    0.126806    0.002270
  76 H :    0.174200    0.000880
  77 H :    0.176244    0.000892
  78 H :    0.121644    0.000003
Sum of atomic charges         :    1.0000000

LOEWDIN ATOMIC CHARGES AND SPIN POPULATIONS
-------------------------------------------
   0 C :   -0.219206    0.005382
   1 N :    0.202643    0.004356
   2 H :    0.211948    0.001010
   3 C :   -0.262215    0.011196
   4 H :    0.150250    0.000319
   5 N :    0.167487    0.048021
   6 C :   -0.212858    0.006546
   7 H :    0.150822    0.000699
   8 C :   -0.224374    0.003160
   9 N :    0.200540    0.002377
  10 H :    0.206352    0.001262
  11 C :   -0.269555    0.006399
  12 H :    0.142402    0.000344
  13 N :    0.183909    0.063117
  14 C :   -0.214503    0.004273
  15 H :    0.151789    0.000404
  16 C :   -0.269005    0.012217
  17 H :    0.133923    0.001267
  18 H :    0.147517   -0.000180
  19 C :   -0.546268    0.026164
  20 O :    0.119927    0.119126
  21 O :    0.156288    0.088177
  22 C :   -0.211283    0.002348
  23 N :    0.208680    0.003291
  24 H :    0.210525    0.000916
  25 C :   -0.274315    0.006584
  26 H :    0.138258    0.000306
  27 N :    0.163181    0.051037
  28 C :   -0.226837    0.004947
  29 H :    0.146583    0.000494
  30 C :   -0.213720    0.003321
  31 N :    0.206768    0.004027
  32 H :    0.210078    0.001242
  33 C :   -0.276483    0.010234
  34 H :    0.144908    0.000195
  35 N :    0.154573    0.054830
  36 C :   -0.215685    0.005433
  37 H :    0.153184    0.000579
  38 C :   -0.282230    0.008238
  39 H :    0.139536    0.000057
  40 H :    0.135623    0.001132
  41 C :   -0.594973    0.012608
  42 O :    0.112659    0.101704
  43 O :   -0.010897    0.029815
  44 Fe:    0.056159    3.915733
  45 Fe:    0.151073    4.004815
  46 O :   -0.171969    0.303311
  47 H :    0.150793    0.011394
  48 C :   -0.352446    0.035172
  49 C :   -0.331216    0.011705
  50 C :   -0.336350    0.002276
  51 C :   -0.326608    0.000720
  52 C :   -0.339894    0.003841
  53 C :   -0.300882    0.013769
  54 O :    0.049732    0.366139
  55 O :    0.003640    0.001140
  56 O :    0.014895    0.002918
  57 O :    0.017352    0.000991
  58 O :    0.005682    0.001076
  59 O :    0.123015    0.058559
  60 H :    0.162671    0.010266
  61 H :    0.146919    0.000325
  62 H :    0.151158    0.000142
  63 H :    0.147209    0.000070
  64 H :    0.150424    0.000078
  65 H :    0.147969    0.000526
  66 H :    0.203388    0.000156
  67 H :    0.198362    0.000034
  68 H :    0.177441    0.000037
  69 H :    0.178844    0.000193
  70 H :    0.221430    0.004133
  71 O :   -0.023136    0.763032
  72 O :   -0.034986    0.774371
  73 H :    0.145686    0.000486
  74 H :    0.143309    0.000612
  75 H :    0.125842    0.001546
  76 H :    0.148637    0.000513
  77 H :    0.148968    0.000532
  78 H :    0.120944    0.000414

  Mayer bond orders larger than 0.100000
B(  0-C ,  1-N ) :   1.1582 B(  0-C ,  6-C ) :   1.6051 B(  0-C , 73-H ) :   0.9376
B(  1-N ,  2-H ) :   0.9012 B(  1-N ,  3-C ) :   1.2889 B(  3-C ,  4-H ) :   0.9289
B(  3-C ,  5-N ) :   1.4446 B(  5-N ,  6-C ) :   1.2131 B(  5-N , 44-Fe) :   0.5601
B(  6-C ,  7-H ) :   0.9563 B(  8-C ,  9-N ) :   1.1674 B(  8-C , 11-C ) :   0.1006
B(  8-C , 14-C ) :   1.6074 B(  8-C , 74-H ) :   0.9440 B(  9-N , 10-H ) :   0.9049
B(  9-N , 11-C ) :   1.2874 B( 11-C , 12-H ) :   0.9359 B( 11-C , 13-N ) :   1.4833
B( 13-N , 14-C ) :   1.2331 B( 13-N , 44-Fe) :   0.4378 B( 14-C , 15-H ) :   0.9398
B( 16-C , 17-H ) :   0.9758 B( 16-C , 18-H ) :   0.9452 B( 16-C , 19-C ) :   0.9431
B( 16-C , 75-H ) :   0.9637 B( 19-C , 20-O ) :   1.4035 B( 19-C , 21-O ) :   1.5966
B( 20-O , 45-Fe) :   0.5487 B( 21-O , 44-Fe) :   0.3716 B( 22-C , 23-N ) :   1.1575
B( 22-C , 28-C ) :   1.6082 B( 22-C , 76-H ) :   0.9394 B( 23-N , 24-H ) :   0.9015
B( 23-N , 25-C ) :   1.3144 B( 25-C , 26-H ) :   0.9263 B( 25-C , 27-N ) :   1.4399
B( 27-N , 28-C ) :   1.2218 B( 27-N , 45-Fe) :   0.4359 B( 28-C , 29-H ) :   0.9529
B( 30-C , 31-N ) :   1.1646 B( 30-C , 36-C ) :   1.6301 B( 30-C , 77-H ) :   0.9336
B( 31-N , 32-H ) :   0.9022 B( 31-N , 33-C ) :   1.3045 B( 33-C , 34-H ) :   0.9317
B( 33-C , 35-N ) :   1.4492 B( 35-N , 36-C ) :   1.1846 B( 35-N , 45-Fe) :   0.4807
B( 36-C , 37-H ) :   0.9118 B( 38-C , 39-H ) :   0.9399 B( 38-C , 40-H ) :   0.9726
B( 38-C , 41-C ) :   0.9669 B( 38-C , 78-H ) :   0.9637 B( 41-C , 42-O ) :   1.4795
B( 41-C , 43-O ) :   1.6118 B( 42-O , 44-Fe) :   0.4928 B( 43-O , 47-H ) :   0.1787
B( 44-Fe, 46-O ) :   0.4907 B( 44-Fe, 71-O ) :   0.4776 B( 44-Fe, 72-O ) :   0.4294
B( 45-Fe, 46-O ) :   0.5264 B( 45-Fe, 54-O ) :   0.9769 B( 45-Fe, 59-O ) :   0.2908
B( 46-O , 47-H ) :   0.7408 B( 48-C , 49-C ) :   0.8425 B( 48-C , 53-C ) :   0.9231
B( 48-C , 54-O ) :   0.9117 B( 48-C , 55-O ) :  -0.1349 B( 48-C , 60-H ) :   0.9348
B( 49-C , 50-C ) :   0.8947 B( 49-C , 55-O ) :   1.2340 B( 49-C , 61-H ) :   0.9487
B( 50-C , 51-C ) :   0.9251 B( 50-C , 56-O ) :   1.1042 B( 50-C , 62-H ) :   0.9515
B( 51-C , 52-C ) :   0.9518 B( 51-C , 57-O ) :   1.0606 B( 51-C , 63-H ) :   0.9533
B( 52-C , 53-C ) :   0.9261 B( 52-C , 58-O ) :   1.0489 B( 52-C , 64-H ) :   0.9606
B( 53-C , 59-O ) :   0.7985 B( 53-C , 65-H ) :   0.9487 B( 55-O , 66-H ) :   0.8850
B( 56-O , 67-H ) :   0.8873 B( 57-O , 68-H ) :   0.8886 B( 58-O , 69-H ) :   0.8797
B( 59-O , 70-H ) :   0.8480 B( 71-O , 72-O ) :   1.3346

FINAL SINGLE POINT ENERGY     -4803.484943608547

DIPOLE MOMENT
-------------
                                X             Y             Z
Electronic contribution:     -6.74587       6.88510      -6.09843
Nuclear contribution   :      2.83187      -8.56052       3.37323
                        -----------------------------------------
Total Dipole Moment    :     -3.91400      -1.67542      -2.72520
                        -----------------------------------------
Magnitude (a.u.)       :      5.05501
Magnitude (Debye)      :     12.84881

Rotational constants in cm-1:     0.002818     0.001896     0.001591
Rotational constants in MHz :    84.485992    56.848204    47.689819

                             ****ORCA TERMINATED NORMALLY****
TOTAL RUN TIME: 0 days 3 hours 30 minutes 3 seconds 567 msec
