 Gaussian 16, Revision A.03,
 Gaussian 16:  ES64L-G16RevA.03 25-Dec-2016

 ------------------------------
 #p UHF/STO-3G nosymm guess=mix
 ------------------------------

 -------------------
 H2 UHF SP guess=mix
 -------------------
 Symbolic Z-matrix:
 Charge =  0 Multiplicity = 1

                          Input orientation:
 ---------------------------------------------------------------------
 Center     Atomic      Atomic             Coordinates (Angstroms)
 Number     Number       Type             X           Y           Z
 ---------------------------------------------------------------------
      1          1           0        0.000000    0.000000    0.000000
      2          1           0        2.000000    0.000000    0.000000
 ---------------------------------------------------------------------

 SCF Done:  E(UHF) = -0.937212834736     A.U. after    6 cycles

 Alpha  occ. eigenvalues --   -0.46457
 Alpha virt. eigenvalues --    0.31377
  Beta  occ. eigenvalues --   -0.46457
  Beta virt. eigenvalues --    0.31377

 Mulliken charges and spin densities:
               1          2
     1  H   -0.000000   0.979540
     2  H   -0.000000  -0.979540
 Sum of Mulliken charges =  -0.00000   0.00000

 Dipole moment (field-independent basis, Debye):
    X=             -0.0000    Y=              0.0000    Z=              0.0000  Tot=              0.0000
 Quadrupole moment (field-independent basis, Debye-Ang):
   XX=             -1.6522   YY=             -1.7613   ZZ=             -1.7613
   XY=              0.0000   XZ=              0.0000   YZ=              0.0000

 Normal termination of Gaussian 16 at Tue Mar 29 17:43:05 2022.
