                         Program Version 5.0.0 -  RELEASE  -
|  1> ! UKS B3LYP def2-TZVP NoRI VeryTightSCF
|  2>
|  3> %pal
|  4>     nprocs  16
|  5> end
|  6>
|  7> %scf
|  8>     MaxIter         500
|  9> end
| 10>
| 11> *xyz +1 12
| 12> C		41.75734		53.28449		36.46919
| 13>  N		42.79051		53.11573		35.57330
| 14>  H		43.17228		53.83016		34.93276
| 15>  C		43.13470		51.81354		35.56329
| 16>  H		43.91258		51.37948		34.93820
| 17>  N		42.38034		51.13480		36.42217
| 18>  C		41.51102		52.03696		36.99860
| 19>  H		40.83095		51.72793		37.79245
| 20>  C		40.09781		47.27650		33.80529
| 21>  N		40.02170		48.59447		33.39932
| 22>  H		39.44553		49.01241		32.66056
| 23>  C		40.82359		49.32561		34.20213
| 24>  H		40.95446		50.40104		34.10028
| 25>  N		41.40873		48.54956		35.10172
| 26>  C		40.96816		47.26932		34.87055
| 27>  H		41.28796		46.44831		35.50461
| 28>  C		38.24452		48.45120		37.81512
| 29>  H		38.05954		49.38046		37.26339
| 30>  H		37.98665		48.64263		38.86852
| 31>  C		39.72949		48.13040		37.79333
| 32>  O		40.09429		46.93627		38.07351
| 33>  O		40.51997		49.08118		37.60316
| 34>  C		38.64927		43.85206		40.73245
| 35>  N		39.75373		43.46182		41.46772
| 36>  H		39.79496		42.88382		42.31310
| 37>  C		40.85618		43.95072		40.86918
| 38>  H		41.86248		43.73518		41.21408
| 39>  N		40.53224		44.65285		39.79009
| 40>  C		39.15837		44.58557		39.68680
| 41>  H		38.64146		45.07274		38.87046
| 42>  C		42.78261		43.20374		35.50847
| 43>  N		41.70457		42.56369		36.07793
| 44>  H		41.38806		41.60804		35.87571
| 45>  C		41.22829		43.34611		37.06176
| 46>  H		40.41508		43.05921		37.72131
| 47>  N		41.93561		44.46974		37.14515
| 48>  C		42.91935		44.39163		36.18162
| 49>  H		43.65310		45.17946		36.03202
| 50>  C		45.76058		48.09668		34.01433
| 51>  H		45.12510		47.65198		33.22625
| 52>  H		46.65442		47.46412		34.10910
| 53>  C		44.94912		48.01873		35.29961
| 54>  O		44.13484		48.94943		35.55949
| 55>  O		45.08257		46.97820		36.01440
| 56>  Fe		42.54704		49.05340		36.88791
| 57>  Fe		41.81454		46.03362		38.62691
| 58>  O		42.83673		47.18336		37.38865
| 59>  H		43.73372		46.94370		37.02075
| 60>  C		43.49278		47.06016		40.65639
| 61>  C		43.63065		47.67500		42.05411
| 62>  C		45.10402		47.59104		42.50255
| 63>  C		45.62433		46.15327		42.46003
| 64>  C		45.40442		45.48020		41.08199
| 65>  C		43.93248		45.59938		40.69958
| 66>  O		42.19054		47.11944		40.15943
| 67>  O		42.78039		47.01168		42.97373
| 68>  O		45.28803		48.11581		43.80122
| 69>  O		46.99863		46.17840		42.81016
| 70>  O		45.74779		44.11749		41.08768
| 71>  O		43.60537		45.05344		39.42059
| 72>  H		44.16891		47.60985		39.96716
| 73>  H		43.37366		48.74650		41.98883
| 74>  H		45.70535		48.16646		41.76817
| 75>  H		45.03997		45.57270		43.19200
| 76>  H		46.02107		46.03839		40.34306
| 77>  H		43.34294		45.09136		41.47918
| 78>  H		42.11013		47.68750		43.28882
| 79>  H		45.23162		49.11556		43.72066
| 80>  H		47.38293		45.25457		42.73301
| 81>  H		46.61533		43.98339		41.55425
| 82>  H		43.52006		44.03995		39.45021
| 83>  O		42.85959		49.69549		38.87779
| 84>  O		44.06259		49.60890		38.41687
| 85>  H		41.30606		54.24869		36.70311
| 86>  H		39.55759		46.43186		33.37773
| 87>  H		37.59815		47.66320		37.42867
| 88>  H		37.60541		43.64578		40.96882
| 89>  H		43.42741		42.77068		34.74377
| 90>  H		46.04094		49.08905		33.66124
| 91> *
| 92>
| 93>
| 94>                          ****END OF INPUT****

CARTESIAN COORDINATES (ANGSTROEM)
---------------------------------
  C     41.757340   53.284490   36.469190
  N     42.790510   53.115730   35.573300
  H     43.172280   53.830160   34.932760
  C     43.134700   51.813540   35.563290
  H     43.912580   51.379480   34.938200
  N     42.380340   51.134800   36.422170
  C     41.511020   52.036960   36.998600
  H     40.830950   51.727930   37.792450
  C     40.097810   47.276500   33.805290
  N     40.021700   48.594470   33.399320
  H     39.445530   49.012410   32.660560
  C     40.823590   49.325610   34.202130
  H     40.954460   50.401040   34.100280
  N     41.408730   48.549560   35.101720
  C     40.968160   47.269320   34.870550
  H     41.287960   46.448310   35.504610
  C     38.244520   48.451200   37.815120
  H     38.059540   49.380460   37.263390
  H     37.986650   48.642630   38.868520
  C     39.729490   48.130400   37.793330
  O     40.094290   46.936270   38.073510
  O     40.519970   49.081180   37.603160
  C     38.649270   43.852060   40.732450
  N     39.753730   43.461820   41.467720
  H     39.794960   42.883820   42.313100
  C     40.856180   43.950720   40.869180
  H     41.862480   43.735180   41.214080
  N     40.532240   44.652850   39.790090
  C     39.158370   44.585570   39.686800
  H     38.641460   45.072740   38.870460
  C     42.782610   43.203740   35.508470
  N     41.704570   42.563690   36.077930
  H     41.388060   41.608040   35.875710
  C     41.228290   43.346110   37.061760
  H     40.415080   43.059210   37.721310
  N     41.935610   44.469740   37.145150
  C     42.919350   44.391630   36.181620
  H     43.653100   45.179460   36.032020
  C     45.760580   48.096680   34.014330
  H     45.125100   47.651980   33.226250
  H     46.654420   47.464120   34.109100
  C     44.949120   48.018730   35.299610
  O     44.134840   48.949430   35.559490
  O     45.082570   46.978200   36.014400
  Fe    42.547040   49.053400   36.887910
  Fe    41.814540   46.033620   38.626910
  O     42.836730   47.183360   37.388650
  H     43.733720   46.943700   37.020750
  C     43.492780   47.060160   40.656390
  C     43.630650   47.675000   42.054110
  C     45.104020   47.591040   42.502550
  C     45.624330   46.153270   42.460030
  C     45.404420   45.480200   41.081990
  C     43.932480   45.599380   40.699580
  O     42.190540   47.119440   40.159430
  O     42.780390   47.011680   42.973730
  O     45.288030   48.115810   43.801220
  O     46.998630   46.178400   42.810160
  O     45.747790   44.117490   41.087680
  O     43.605370   45.053440   39.420590
  H     44.168910   47.609850   39.967160
  H     43.373660   48.746500   41.988830
  H     45.705350   48.166460   41.768170
  H     45.039970   45.572700   43.192000
  H     46.021070   46.038390   40.343060
  H     43.342940   45.091360   41.479180
  H     42.110130   47.687500   43.288820
  H     45.231620   49.115560   43.720660
  H     47.382930   45.254570   42.733010
  H     46.615330   43.983390   41.554250
  H     43.520060   44.039950   39.450210
  O     42.859590   49.695490   38.877790
  O     44.062590   49.608900   38.416870
  H     41.306060   54.248690   36.703110
  H     39.557590   46.431860   33.377730
  H     37.598150   47.663200   37.428670
  H     37.605410   43.645780   40.968820
  H     43.427410   42.770680   34.743770
  H     46.040940   49.089050   33.661240

 Total Charge           Charge          ....    1
 Multiplicity           Mult            ....   12
 Number of Electrons    NEL             ....  377
 Basis Dimension        Dim             .... 1627

ORBITAL ENERGIES
----------------
                 SPIN UP ORBITALS
  NO   OCC          E(Eh)            E(eV)
   0   1.0000    -256.241314     -6972.6806
   1   1.0000    -256.202027     -6971.6116
   2   1.0000     -30.235871      -822.7599
   3   1.0000     -30.190572      -821.5272
   4   1.0000     -26.091774      -709.9933
   5   1.0000     -26.087578      -709.8791
   6   1.0000     -26.084420      -709.7932
   7   1.0000     -26.050610      -708.8731
   8   1.0000     -26.040398      -708.5952
   9   1.0000     -26.039063      -708.5589
  10   1.0000     -19.276051      -524.5280
  11   1.0000     -19.275045      -524.5006
  12   1.0000     -19.260060      -524.0929
  13   1.0000     -19.214821      -522.8619
  14   1.0000     -19.198183      -522.4091
  15   1.0000     -19.192812      -522.2630
  16   1.0000     -19.192469      -522.2536
  17   1.0000     -19.185135      -522.0541
  18   1.0000     -19.181917      -521.9665
  19   1.0000     -19.167100      -521.5633
  20   1.0000     -19.161850      -521.4205
  21   1.0000     -19.158260      -521.3228
  22   1.0000     -19.136101      -520.7198
  23   1.0000     -14.492799      -394.3691
  24   1.0000     -14.491909      -394.3449
  25   1.0000     -14.476941      -393.9376
  26   1.0000     -14.474664      -393.8756
  27   1.0000     -14.434330      -392.7781
  28   1.0000     -14.434278      -392.7767
  29   1.0000     -14.416931      -392.3046
  30   1.0000     -14.409906      -392.1135
  31   1.0000     -10.368240      -282.1342
  32   1.0000     -10.348062      -281.5851
  33   1.0000     -10.346497      -281.5425
  34   1.0000     -10.331189      -281.1260
  35   1.0000     -10.328370      -281.0492
  36   1.0000     -10.326490      -280.9981
  37   1.0000     -10.314732      -280.6781
  38   1.0000     -10.307853      -280.4909
  39   1.0000     -10.307098      -280.4704
  40   1.0000     -10.298838      -280.2456
  41   1.0000     -10.298401      -280.2337
  42   1.0000     -10.297628      -280.2127
  43   1.0000     -10.296532      -280.1829
  44   1.0000     -10.290688      -280.0239
  45   1.0000     -10.289596      -279.9941
  46   1.0000     -10.285882      -279.8931
  47   1.0000     -10.285474      -279.8820
  48   1.0000     -10.283947      -279.8404
  49   1.0000     -10.282072      -279.7894
  50   1.0000     -10.278073      -279.6806
  51   1.0000     -10.245366      -278.7906
  52   1.0000     -10.219322      -278.0819
  53   1.0000      -3.722012      -101.2811
  54   1.0000      -3.678738      -100.1035
  55   1.0000      -2.504366       -68.1473
  56   1.0000      -2.495175       -67.8972
  57   1.0000      -2.489225       -67.7353
  58   1.0000      -2.469438       -67.1968
  59   1.0000      -2.447277       -66.5938
  60   1.0000      -2.444495       -66.5181
  61   1.0000      -1.253982       -34.1226
  62   1.0000      -1.146180       -31.1891
  63   1.0000      -1.144435       -31.1417
  64   1.0000      -1.137501       -30.9530
  65   1.0000      -1.136818       -30.9344
  66   1.0000      -1.120904       -30.5014
  67   1.0000      -1.117818       -30.4174
  68   1.0000      -1.113100       -30.2890
  69   1.0000      -1.107478       -30.1360
  70   1.0000      -1.095190       -29.8016
  71   1.0000      -1.082338       -29.4519
  72   1.0000      -1.066903       -29.0319
  73   1.0000      -1.056740       -28.7554
  74   1.0000      -1.043288       -28.3893
  75   1.0000      -1.022928       -27.8353
  76   1.0000      -1.009435       -27.4681
  77   1.0000      -0.995419       -27.0867
  78   1.0000      -0.992745       -27.0140
  79   1.0000      -0.977763       -26.6063
  80   1.0000      -0.974306       -26.5122
  81   1.0000      -0.879816       -23.9410
  82   1.0000      -0.864321       -23.5194
  83   1.0000      -0.862623       -23.4732
  84   1.0000      -0.858550       -23.3623
  85   1.0000      -0.844163       -22.9708
  86   1.0000      -0.842528       -22.9264
  87   1.0000      -0.807597       -21.9758
  88   1.0000      -0.798655       -21.7325
  89   1.0000      -0.781468       -21.2648
  90   1.0000      -0.777417       -21.1546
  91   1.0000      -0.735661       -20.0184
  92   1.0000      -0.734139       -19.9769
  93   1.0000      -0.718075       -19.5398
  94   1.0000      -0.717073       -19.5126
  95   1.0000      -0.709211       -19.2986
  96   1.0000      -0.706452       -19.2235
  97   1.0000      -0.700355       -19.0576
  98   1.0000      -0.693408       -18.8686
  99   1.0000      -0.688865       -18.7450
 100   1.0000      -0.682335       -18.5673
 101   1.0000      -0.675851       -18.3909
 102   1.0000      -0.671308       -18.2672
 103   1.0000      -0.662324       -18.0227
 104   1.0000      -0.658045       -17.9063
 105   1.0000      -0.648321       -17.6417
 106   1.0000      -0.637792       -17.3552
 107   1.0000      -0.621063       -16.9000
 108   1.0000      -0.610367       -16.6089
 109   1.0000      -0.600604       -16.3433
 110   1.0000      -0.593858       -16.1597
 111   1.0000      -0.586030       -15.9467
 112   1.0000      -0.581882       -15.8338
 113   1.0000      -0.572887       -15.5891
 114   1.0000      -0.570865       -15.5340
 115   1.0000      -0.569431       -15.4950
 116   1.0000      -0.565580       -15.3902
 117   1.0000      -0.563332       -15.3290
 118   1.0000      -0.561976       -15.2922
 119   1.0000      -0.559019       -15.2117
 120   1.0000      -0.558528       -15.1983
 121   1.0000      -0.554248       -15.0818
 122   1.0000      -0.553031       -15.0487
 123   1.0000      -0.550094       -14.9688
 124   1.0000      -0.548203       -14.9174
 125   1.0000      -0.544433       -14.8148
 126   1.0000      -0.543360       -14.7856
 127   1.0000      -0.541526       -14.7357
 128   1.0000      -0.538749       -14.6601
 129   1.0000      -0.537246       -14.6192
 130   1.0000      -0.535128       -14.5616
 131   1.0000      -0.534290       -14.5388
 132   1.0000      -0.531574       -14.4649
 133   1.0000      -0.530047       -14.4233
 134   1.0000      -0.528841       -14.3905
 135   1.0000      -0.527994       -14.3674
 136   1.0000      -0.523884       -14.2556
 137   1.0000      -0.520261       -14.1570
 138   1.0000      -0.516634       -14.0583
 139   1.0000      -0.514407       -13.9977
 140   1.0000      -0.511962       -13.9312
 141   1.0000      -0.510225       -13.8839
 142   1.0000      -0.508442       -13.8354
 143   1.0000      -0.506953       -13.7949
 144   1.0000      -0.501190       -13.6381
 145   1.0000      -0.498522       -13.5655
 146   1.0000      -0.497025       -13.5247
 147   1.0000      -0.493242       -13.4218
 148   1.0000      -0.483954       -13.1691
 149   1.0000      -0.477719       -12.9994
 150   1.0000      -0.476772       -12.9736
 151   1.0000      -0.475857       -12.9487
 152   1.0000      -0.475231       -12.9317
 153   1.0000      -0.467821       -12.7301
 154   1.0000      -0.465923       -12.6784
 155   1.0000      -0.463471       -12.6117
 156   1.0000      -0.458726       -12.4826
 157   1.0000      -0.457288       -12.4434
 158   1.0000      -0.448923       -12.2158
 159   1.0000      -0.447079       -12.1656
 160   1.0000      -0.443603       -12.0710
 161   1.0000      -0.435941       -11.8626
 162   1.0000      -0.425541       -11.5796
 163   1.0000      -0.420089       -11.4312
 164   1.0000      -0.419252       -11.4084
 165   1.0000      -0.413208       -11.2440
 166   1.0000      -0.411720       -11.2035
 167   1.0000      -0.409557       -11.1446
 168   1.0000      -0.407245       -11.0817
 169   1.0000      -0.396201       -10.7812
 170   1.0000      -0.394587       -10.7373
 171   1.0000      -0.389968       -10.6116
 172   1.0000      -0.381787       -10.3890
 173   1.0000      -0.379549       -10.3280
 174   1.0000      -0.368797       -10.0355
 175   1.0000      -0.364137        -9.9087
 176   1.0000      -0.361245        -9.8300
 177   1.0000      -0.357317        -9.7231
 178   1.0000      -0.356327        -9.6961
 179   1.0000      -0.353949        -9.6314
 180   1.0000      -0.350889        -9.5482
 181   1.0000      -0.345873        -9.4117
 182   1.0000      -0.344038        -9.3618
 183   1.0000      -0.343348        -9.3430
 184   1.0000      -0.339057        -9.2262
 185   1.0000      -0.336265        -9.1502
 186   1.0000      -0.332951        -9.0601
 187   1.0000      -0.330370        -8.9898
 188   1.0000      -0.328411        -8.9365
 189   1.0000      -0.322270        -8.7694
 190   1.0000      -0.318386        -8.6637
 191   1.0000      -0.311493        -8.4762
 192   1.0000      -0.309195        -8.4136
 193   1.0000      -0.302402        -8.2288
 194   0.0000      -0.107398        -2.9225
 195   0.0000      -0.100508        -2.7350
 196   0.0000      -0.087750        -2.3878
 197   0.0000      -0.082276        -2.2388
 198   0.0000      -0.078127        -2.1259

                 SPIN DOWN ORBITALS
  NO   OCC          E(Eh)            E(eV)
   0   1.0000    -256.239484     -6972.6309
   1   1.0000    -256.200347     -6971.5659
   2   1.0000     -30.143353      -820.2423
   3   1.0000     -30.101231      -819.0961
   4   1.0000     -26.013056      -707.8513
   5   1.0000     -26.010577      -707.7838
   6   1.0000     -26.009111      -707.7439
   7   1.0000     -25.972342      -706.7434
   8   1.0000     -25.967891      -706.6222
   9   1.0000     -25.966882      -706.5948
  10   1.0000     -19.257957      -524.0356
  11   1.0000     -19.252539      -523.8882
  12   1.0000     -19.251203      -523.8519
  13   1.0000     -19.214804      -522.8614
  14   1.0000     -19.198166      -522.4087
  15   1.0000     -19.192806      -522.2628
  16   1.0000     -19.188775      -522.1531
  17   1.0000     -19.185086      -522.0527
  18   1.0000     -19.179205      -521.8927
  19   1.0000     -19.156745      -521.2815
  20   1.0000     -19.155155      -521.2383
  21   1.0000     -19.153343      -521.1890
  22   1.0000     -19.135740      -520.7100
  23   1.0000     -14.492711      -394.3667
  24   1.0000     -14.491819      -394.3424
  25   1.0000     -14.476847      -393.9350
  26   1.0000     -14.474599      -393.8739
  27   1.0000     -14.432503      -392.7284
  28   1.0000     -14.432443      -392.7267
  29   1.0000     -14.415375      -392.2623
  30   1.0000     -14.407812      -392.0565
  31   1.0000     -10.368181      -282.1325
  32   1.0000     -10.348027      -281.5841
  33   1.0000     -10.346373      -281.5391
  34   1.0000     -10.331211      -281.1265
  35   1.0000     -10.328239      -281.0457
  36   1.0000     -10.326455      -280.9971
  37   1.0000     -10.314685      -280.6768
  38   1.0000     -10.307796      -280.4894
  39   1.0000     -10.306894      -280.4648
  40   1.0000     -10.298784      -280.2442
  41   1.0000     -10.298367      -280.2328
  42   1.0000     -10.297546      -280.2105
  43   1.0000     -10.296472      -280.1812
  44   1.0000     -10.290661      -280.0231
  45   1.0000     -10.289588      -279.9939
  46   1.0000     -10.285661      -279.8871
  47   1.0000     -10.285407      -279.8802
  48   1.0000     -10.283891      -279.8389
  49   1.0000     -10.282113      -279.7905
  50   1.0000     -10.278086      -279.6809
  51   1.0000     -10.245094      -278.7832
  52   1.0000     -10.219154      -278.0773
  53   1.0000      -3.504904       -95.3733
  54   1.0000      -3.468133       -94.3727
  55   1.0000      -2.270797       -61.7915
  56   1.0000      -2.266526       -61.6753
  57   1.0000      -2.264980       -61.6332
  58   1.0000      -2.233034       -60.7640
  59   1.0000      -2.232644       -60.7533
  60   1.0000      -2.229695       -60.6731
  61   1.0000      -1.207432       -32.8559
  62   1.0000      -1.142580       -31.0912
  63   1.0000      -1.139246       -31.0005
  64   1.0000      -1.136524       -30.9264
  65   1.0000      -1.135976       -30.9115
  66   1.0000      -1.120048       -30.4780
  67   1.0000      -1.116921       -30.3930
  68   1.0000      -1.112701       -30.2781
  69   1.0000      -1.103934       -30.0396
  70   1.0000      -1.094768       -29.7902
  71   1.0000      -1.081993       -29.4425
  72   1.0000      -1.066520       -29.0215
  73   1.0000      -1.049823       -28.5671
  74   1.0000      -1.024252       -27.8713
  75   1.0000      -1.011981       -27.5374
  76   1.0000      -0.998610       -27.1736
  77   1.0000      -0.993142       -27.0248
  78   1.0000      -0.990546       -26.9541
  79   1.0000      -0.976073       -26.5603
  80   1.0000      -0.972429       -26.4611
  81   1.0000      -0.877728       -23.8842
  82   1.0000      -0.862265       -23.4634
  83   1.0000      -0.858121       -23.3506
  84   1.0000      -0.843762       -22.9599
  85   1.0000      -0.842146       -22.9159
  86   1.0000      -0.806192       -21.9376
  87   1.0000      -0.797983       -21.7142
  88   1.0000      -0.796541       -21.6750
  89   1.0000      -0.778662       -21.1885
  90   1.0000      -0.776452       -21.1283
  91   1.0000      -0.734409       -19.9843
  92   1.0000      -0.732708       -19.9380
  93   1.0000      -0.716681       -19.5019
  94   1.0000      -0.715784       -19.4775
  95   1.0000      -0.708227       -19.2718
  96   1.0000      -0.705433       -19.1958
  97   1.0000      -0.699441       -19.0328
  98   1.0000      -0.692333       -18.8393
  99   1.0000      -0.687811       -18.7163
 100   1.0000      -0.681702       -18.5500
 101   1.0000      -0.675331       -18.3767
 102   1.0000      -0.667951       -18.1759
 103   1.0000      -0.661737       -18.0068
 104   1.0000      -0.657444       -17.8900
 105   1.0000      -0.646880       -17.6025
 106   1.0000      -0.626492       -17.0477
 107   1.0000      -0.619286       -16.8516
 108   1.0000      -0.608524       -16.5588
 109   1.0000      -0.592240       -16.1157
 110   1.0000      -0.589832       -16.0502
 111   1.0000      -0.580502       -15.7963
 112   1.0000      -0.572556       -15.5800
 113   1.0000      -0.563656       -15.3379
 114   1.0000      -0.561320       -15.2743
 115   1.0000      -0.557638       -15.1741
 116   1.0000      -0.555888       -15.1265
 117   1.0000      -0.553568       -15.0634
 118   1.0000      -0.551724       -15.0132
 119   1.0000      -0.550176       -14.9711
 120   1.0000      -0.547553       -14.8997
 121   1.0000      -0.546536       -14.8720
 122   1.0000      -0.543680       -14.7943
 123   1.0000      -0.543444       -14.7879
 124   1.0000      -0.540198       -14.6995
 125   1.0000      -0.538084       -14.6420
 126   1.0000      -0.533175       -14.5084
 127   1.0000      -0.532282       -14.4841
 128   1.0000      -0.529987       -14.4217
 129   1.0000      -0.526829       -14.3357
 130   1.0000      -0.525925       -14.3112
 131   1.0000      -0.523382       -14.2420
 132   1.0000      -0.519023       -14.1233
 133   1.0000      -0.512994       -13.9593
 134   1.0000      -0.511498       -13.9186
 135   1.0000      -0.509531       -13.8650
 136   1.0000      -0.508619       -13.8402
 137   1.0000      -0.502396       -13.6709
 138   1.0000      -0.501265       -13.6401
 139   1.0000      -0.495742       -13.4898
 140   1.0000      -0.493688       -13.4339
 141   1.0000      -0.491150       -13.3649
 142   1.0000      -0.482973       -13.1424
 143   1.0000      -0.479927       -13.0595
 144   1.0000      -0.474609       -12.9148
 145   1.0000      -0.469527       -12.7765
 146   1.0000      -0.463443       -12.6109
 147   1.0000      -0.457120       -12.4389
 148   1.0000      -0.455323       -12.3900
 149   1.0000      -0.451483       -12.2855
 150   1.0000      -0.446880       -12.1602
 151   1.0000      -0.444664       -12.0999
 152   1.0000      -0.442376       -12.0377
 153   1.0000      -0.439763       -11.9666
 154   1.0000      -0.427345       -11.6287
 155   1.0000      -0.423948       -11.5362
 156   1.0000      -0.417220       -11.3531
 157   1.0000      -0.416598       -11.3362
 158   1.0000      -0.410786       -11.1781
 159   1.0000      -0.409723       -11.1491
 160   1.0000      -0.405481       -11.0337
 161   1.0000      -0.402650       -10.9567
 162   1.0000      -0.393580       -10.7099
 163   1.0000      -0.392707       -10.6861
 164   1.0000      -0.381247       -10.3743
 165   1.0000      -0.378203       -10.2914
 166   1.0000      -0.370649       -10.0859
 167   1.0000      -0.367717       -10.0061
 168   1.0000      -0.361922        -9.8484
 169   1.0000      -0.357180        -9.7193
 170   1.0000      -0.355652        -9.6778
 171   1.0000      -0.350915        -9.5489
 172   1.0000      -0.347628        -9.4594
 173   1.0000      -0.345271        -9.3953
 174   1.0000      -0.338786        -9.2188
 175   1.0000      -0.338440        -9.2094
 176   1.0000      -0.336693        -9.1619
 177   1.0000      -0.331575        -9.0226
 178   1.0000      -0.328992        -8.9523
 179   1.0000      -0.320954        -8.7336
 180   1.0000      -0.311594        -8.4789
 181   1.0000      -0.308628        -8.3982
 182   1.0000      -0.288545        -7.8517
 183   0.0000      -0.186777        -5.0825
 184   0.0000      -0.184176        -5.0117
 185   0.0000      -0.180197        -4.9034
 186   0.0000      -0.165778        -4.5110
 187   0.0000      -0.152206        -4.1417

MULLIKEN ATOMIC CHARGES AND SPIN POPULATIONS
--------------------------------------------
   0 C :   -0.036371    0.005001
   1 N :   -0.218890    0.002719
   2 H :    0.256138    0.001187
   3 C :    0.052463    0.006654
   4 H :    0.194033    0.000066
   5 N :   -0.137097    0.038645
   6 C :   -0.086725    0.002106
   7 H :    0.161705    0.000880
   8 C :   -0.068790    0.003092
   9 N :   -0.229065    0.001394
  10 H :    0.248521    0.001481
  11 C :    0.061441    0.000543
  12 H :    0.171122    0.000807
  13 N :   -0.092423    0.045365
  14 C :   -0.093712   -0.001702
  15 H :    0.185599    0.001675
  16 C :   -0.366888    0.012310
  17 H :    0.128723    0.001082
  18 H :    0.138592   -0.000669
  19 C :    0.494229    0.006804
  20 O :   -0.515335    0.089422
  21 O :   -0.436569    0.061643
  22 C :   -0.033235    0.001857
  23 N :   -0.231306    0.002849
  24 H :    0.257867    0.000986
  25 C :    0.093019    0.001867
  26 H :    0.157985    0.000386
  27 N :   -0.178301    0.039358
  28 C :   -0.098685    0.001416
  29 H :    0.167140    0.000175
  30 C :   -0.035402    0.002714
  31 N :   -0.228286    0.002707
  32 H :    0.255173    0.001268
  33 C :    0.064773    0.006221
  34 H :    0.190491    0.000307
  35 N :   -0.191852    0.040013
  36 C :   -0.127223    0.001365
  37 H :    0.219881    0.000048
  38 C :   -0.349572    0.007577
  39 H :    0.108943   -0.000189
  40 H :    0.134215    0.000936
  41 C :    0.416744   -0.000731
  42 O :   -0.467289    0.075663
  43 O :   -0.534703    0.011192
  44 Fe:    0.791865    4.102684
  45 Fe:    0.791398    4.235367
  46 O :   -0.862575    0.244665
  47 H :    0.361631    0.004251
  48 C :    0.236532   -0.003651
  49 C :    0.006291    0.011100
  50 C :    0.108005    0.002134
  51 C :    0.052222    0.000522
  52 C :    0.035682    0.002171
  53 C :    0.075886    0.009735
  54 O :   -0.523345    0.339340
  55 O :   -0.464532    0.000392
  56 O :   -0.423070    0.001432
  57 O :   -0.395023    0.000472
  58 O :   -0.445312    0.000427
  59 O :   -0.449537    0.039016
  60 H :    0.106212    0.009087
  61 H :    0.097991   -0.000165
  62 H :    0.080232   -0.000170
  63 H :    0.074248    0.000030
  64 H :    0.088554   -0.000030
  65 H :    0.077299    0.000427
  66 H :    0.318642    0.000010
  67 H :    0.304817   -0.000051
  68 H :    0.272251   -0.000008
  69 H :    0.285339    0.000017
  70 H :    0.342249    0.002493
  71 O :   -0.122192    0.747872
  72 O :   -0.129775    0.768174
  73 H :    0.167596    0.000532
  74 H :    0.156500    0.000765
  75 H :    0.118896    0.001499
  76 H :    0.174612    0.000567
  77 H :    0.176650    0.000562
  78 H :    0.112683   -0.000161
Sum of atomic charges         :    1.0000000

LOEWDIN ATOMIC CHARGES AND SPIN POPULATIONS
-------------------------------------------
   0 C :   -0.215069    0.003848
   1 N :    0.194815    0.003007
   2 H :    0.211989    0.000619
   3 C :   -0.247667    0.007704
   4 H :    0.149820    0.000148
   5 N :    0.149843    0.043678
   6 C :   -0.207815    0.004488
   7 H :    0.149161    0.000481
   8 C :   -0.221263    0.002503
   9 N :    0.192262    0.001414
  10 H :    0.206172    0.000761
  11 C :   -0.256819    0.003407
  12 H :    0.140982    0.000214
  13 N :    0.167017    0.056219
  14 C :   -0.210425    0.002158
  15 H :    0.149943    0.000152
  16 C :   -0.259172    0.008721
  17 H :    0.130981    0.000832
  18 H :    0.144247   -0.000225
  19 C :   -0.518614    0.017197
  20 O :    0.078511    0.097203
  21 O :    0.119420    0.068672
  22 C :   -0.205495    0.001756
  23 N :    0.201874    0.002423
  24 H :    0.211013    0.000558
  25 C :   -0.257707    0.003960
  26 H :    0.137955    0.000172
  27 N :    0.145723    0.048361
  28 C :   -0.220202    0.003363
  29 H :    0.145365    0.000278
  30 C :   -0.208634    0.002446
  31 N :    0.199825    0.002874
  32 H :    0.210486    0.000718
  33 C :   -0.263313    0.007387
  34 H :    0.143893    0.000103
  35 N :    0.135962    0.050234
  36 C :   -0.208088    0.003628
  37 H :    0.153687    0.000339
  38 C :   -0.273571    0.005121
  39 H :    0.135305   -0.000043
  40 H :    0.132284    0.000677
  41 C :   -0.570067    0.006563
  42 O :    0.070547    0.080011
  43 O :   -0.044143    0.009633
  44 Fe:    0.171688    4.051969
  45 Fe:    0.292562    4.179322
  46 O :   -0.228447    0.253374
  47 H :    0.156060    0.008942
  48 C :   -0.341493    0.023654
  49 C :   -0.315220    0.008304
  50 C :   -0.320418    0.001488
  51 C :   -0.310854    0.000363
  52 C :   -0.323750    0.002244
  53 C :   -0.285987    0.008392
  54 O :   -0.006795    0.320141
  55 O :   -0.014154    0.000452
  56 O :   -0.001720    0.001405
  57 O :    0.000311    0.000470
  58 O :   -0.011101    0.000528
  59 O :    0.099719    0.051792
  60 H :    0.157106    0.005919
  61 H :    0.143429    0.000087
  62 H :    0.147705    0.000017
  63 H :    0.144469    0.000017
  64 H :    0.147711   -0.000008
  65 H :    0.145224    0.000144
  66 H :    0.204076    0.000079
  67 H :    0.199202    0.000010
  68 H :    0.179154    0.000008
  69 H :    0.181420    0.000047
  70 H :    0.222981    0.002656
  71 O :   -0.030314    0.751788
  72 O :   -0.044323    0.770102
  73 H :    0.144032    0.000327
  74 H :    0.141322    0.000399
  75 H :    0.122789    0.000995
  76 H :    0.147466    0.000340
  77 H :    0.147772    0.000350
  78 H :    0.117360    0.000114

  Mayer bond orders larger than 0.100000
B(  0-C ,  1-N ) :   1.1452 B(  0-C ,  6-C ) :   1.6316 B(  0-C , 73-H ) :   0.9409
B(  1-N ,  2-H ) :   0.9055 B(  1-N ,  3-C ) :   1.2829 B(  3-C ,  4-H ) :   0.9374
B(  3-C ,  5-N ) :   1.4585 B(  5-N ,  6-C ) :   1.2078 B(  5-N , 44-Fe) :   0.5389
B(  6-C ,  7-H ) :   0.9625 B(  8-C ,  9-N ) :   1.1565 B(  8-C , 14-C ) :   1.6298
B(  8-C , 74-H ) :   0.9466 B(  9-N , 10-H ) :   0.9096 B(  9-N , 11-C ) :   1.2806
B( 11-C , 12-H ) :   0.9457 B( 11-C , 13-N ) :   1.4975 B( 13-N , 14-C ) :   1.2275
B( 13-N , 44-Fe) :   0.4094 B( 14-C , 15-H ) :   0.9503 B( 16-C , 17-H ) :   0.9836
B( 16-C , 18-H ) :   0.9514 B( 16-C , 19-C ) :   0.9444 B( 16-C , 75-H ) :   0.9706
B( 19-C , 20-O ) :   1.3883 B( 19-C , 21-O ) :   1.5902 B( 20-O , 45-Fe) :   0.5041
B( 21-O , 44-Fe) :   0.3309 B( 22-C , 23-N ) :   1.1451 B( 22-C , 28-C ) :   1.6347
B( 22-C , 76-H ) :   0.9417 B( 23-N , 24-H ) :   0.9055 B( 23-N , 25-C ) :   1.3104
B( 25-C , 26-H ) :   0.9378 B( 25-C , 27-N ) :   1.4520 B( 27-N , 28-C ) :   1.2167
B( 27-N , 45-Fe) :   0.4247 B( 28-C , 29-H ) :   0.9600 B( 30-C , 31-N ) :   1.1509
B( 30-C , 36-C ) :   1.6524 B( 30-C , 77-H ) :   0.9358 B( 31-N , 32-H ) :   0.9063
B( 31-N , 33-C ) :   1.3020 B( 33-C , 34-H ) :   0.9410 B( 33-C , 35-N ) :   1.4576
B( 35-N , 36-C ) :   1.1835 B( 35-N , 45-Fe) :   0.4682 B( 36-C , 37-H ) :   0.9164
B( 38-C , 39-H ) :   0.9468 B( 38-C , 40-H ) :   0.9812 B( 38-C , 41-C ) :   0.9654
B( 38-C , 78-H ) :   0.9704 B( 41-C , 42-O ) :   1.4629 B( 41-C , 43-O ) :   1.6204
B( 42-O , 44-Fe) :   0.4489 B( 43-O , 47-H ) :   0.1686 B( 44-Fe, 46-O ) :   0.3969
B( 44-Fe, 71-O ) :   0.4929 B( 44-Fe, 72-O ) :   0.4205 B( 45-Fe, 46-O ) :   0.4927
B( 45-Fe, 54-O ) :   0.9406 B( 45-Fe, 59-O ) :   0.2686 B( 46-O , 47-H ) :   0.7486
B( 48-C , 49-C ) :   0.8532 B( 48-C , 53-C ) :   0.9351 B( 48-C , 54-O ) :   0.8706
B( 48-C , 55-O ) :  -0.1415 B( 48-C , 60-H ) :   0.9548 B( 49-C , 50-C ) :   0.9031
B( 49-C , 55-O ) :   1.2100 B( 49-C , 61-H ) :   0.9653 B( 50-C , 51-C ) :   0.9288
B( 50-C , 56-O ) :   1.0825 B( 50-C , 62-H ) :   0.9669 B( 51-C , 52-C ) :   0.9553
B( 51-C , 57-O ) :   1.0442 B( 51-C , 63-H ) :   0.9669 B( 52-C , 53-C ) :   0.9324
B( 52-C , 58-O ) :   1.0309 B( 52-C , 64-H ) :   0.9743 B( 53-C , 59-O ) :   0.7651
B( 53-C , 65-H ) :   0.9649 B( 55-O , 66-H ) :   0.8874 B( 56-O , 67-H ) :   0.8894
B( 57-O , 68-H ) :   0.8938 B( 58-O , 69-H ) :   0.8850 B( 59-O , 70-H ) :   0.8529
B( 71-O , 72-O ) :   1.3294

FINAL SINGLE POINT ENERGY     -4801.662069299514

DIPOLE MOMENT
-------------
                                X             Y             Z
Electronic contribution:     -6.94449       6.72599      -6.09115
Nuclear contribution   :      2.82395      -8.54805       3.28465
                        -----------------------------------------
Total Dipole Moment    :     -4.12055      -1.82207      -2.80649
                        -----------------------------------------
Magnitude (a.u.)       :      5.30803
Magnitude (Debye)      :     13.49195

Rotational constants in cm-1:     0.002821     0.001898     0.001592
Rotational constants in MHz :    84.561491    56.909288    47.739255

                             ****ORCA TERMINATED NORMALLY****
TOTAL RUN TIME: 0 days 2 hours 13 minutes 36 seconds 39 msec
