                         Program Version 5.0.0 -  RELEASE  -
|  1> ! UKS B3LYP def2-TZVP Slowconv NoTrah NoRI VeryTightSCF
|  2> ! MORead
|  3>
|  4> %pal
|  5>     nprocs  16
|  6> end
|  7>
|  8> %moinp  "RC2-highspin.gbw"
|  9>
| 10> %scf
| 11>     MaxIter         500
| 12>     FlipSpin        44
| 13>     FinalMs         0.5
| 14> end
| 15>
| 16> *xyz +1 12
| 17> C		41.75734		53.28449		36.46919
| 18>  N		42.79051		53.11573		35.57330
| 19>  H		43.17228		53.83016		34.93276
| 20>  C		43.13470		51.81354		35.56329
| 21>  H		43.91258		51.37948		34.93820
| 22>  N		42.38034		51.13480		36.42217
| 23>  C		41.51102		52.03696		36.99860
| 24>  H		40.83095		51.72793		37.79245
| 25>  C		40.09781		47.27650		33.80529
| 26>  N		40.02170		48.59447		33.39932
| 27>  H		39.44553		49.01241		32.66056
| 28>  C		40.82359		49.32561		34.20213
| 29>  H		40.95446		50.40104		34.10028
| 30>  N		41.40873		48.54956		35.10172
| 31>  C		40.96816		47.26932		34.87055
| 32>  H		41.28796		46.44831		35.50461
| 33>  C		38.24452		48.45120		37.81512
| 34>  H		38.05954		49.38046		37.26339
| 35>  H		37.98665		48.64263		38.86852
| 36>  C		39.72949		48.13040		37.79333
| 37>  O		40.09429		46.93627		38.07351
| 38>  O		40.51997		49.08118		37.60316
| 39>  C		38.64927		43.85206		40.73245
| 40>  N		39.75373		43.46182		41.46772
| 41>  H		39.79496		42.88382		42.31310
| 42>  C		40.85618		43.95072		40.86918
| 43>  H		41.86248		43.73518		41.21408
| 44>  N		40.53224		44.65285		39.79009
| 45>  C		39.15837		44.58557		39.68680
| 46>  H		38.64146		45.07274		38.87046
| 47>  C		42.78261		43.20374		35.50847
| 48>  N		41.70457		42.56369		36.07793
| 49>  H		41.38806		41.60804		35.87571
| 50>  C		41.22829		43.34611		37.06176
| 51>  H		40.41508		43.05921		37.72131
| 52>  N		41.93561		44.46974		37.14515
| 53>  C		42.91935		44.39163		36.18162
| 54>  H		43.65310		45.17946		36.03202
| 55>  C		45.76058		48.09668		34.01433
| 56>  H		45.12510		47.65198		33.22625
| 57>  H		46.65442		47.46412		34.10910
| 58>  C		44.94912		48.01873		35.29961
| 59>  O		44.13484		48.94943		35.55949
| 60>  O		45.08257		46.97820		36.01440
| 61>  Fe		42.54704		49.05340		36.88791
| 62>  Fe		41.81454		46.03362		38.62691
| 63>  O		42.83673		47.18336		37.38865
| 64>  H		43.73372		46.94370		37.02075
| 65>  C		43.49278		47.06016		40.65639
| 66>  C		43.63065		47.67500		42.05411
| 67>  C		45.10402		47.59104		42.50255
| 68>  C		45.62433		46.15327		42.46003
| 69>  C		45.40442		45.48020		41.08199
| 70>  C		43.93248		45.59938		40.69958
| 71>  O		42.19054		47.11944		40.15943
| 72>  O		42.78039		47.01168		42.97373
| 73>  O		45.28803		48.11581		43.80122
| 74>  O		46.99863		46.17840		42.81016
| 75>  O		45.74779		44.11749		41.08768
| 76>  O		43.60537		45.05344		39.42059
| 77>  H		44.16891		47.60985		39.96716
| 78>  H		43.37366		48.74650		41.98883
| 79>  H		45.70535		48.16646		41.76817
| 80>  H		45.03997		45.57270		43.19200
| 81>  H		46.02107		46.03839		40.34306
| 82>  H		43.34294		45.09136		41.47918
| 83>  H		42.11013		47.68750		43.28882
| 84>  H		45.23162		49.11556		43.72066
| 85>  H		47.38293		45.25457		42.73301
| 86>  H		46.61533		43.98339		41.55425
| 87>  H		43.52006		44.03995		39.45021
| 88>  O		42.85959		49.69549		38.87779
| 89>  O		44.06259		49.60890		38.41687
| 90>  H		41.30606		54.24869		36.70311
| 91>  H		39.55759		46.43186		33.37773
| 92>  H		37.59815		47.66320		37.42867
| 93>  H		37.60541		43.64578		40.96882
| 94>  H		43.42741		42.77068		34.74377
| 95>  H		46.04094		49.08905		33.66124
| 96> *
| 97>
| 98>
| 99>                          ****END OF INPUT****

CARTESIAN COORDINATES (ANGSTROEM)
---------------------------------
  C     41.757340   53.284490   36.469190
  N     42.790510   53.115730   35.573300
  H     43.172280   53.830160   34.932760
  C     43.134700   51.813540   35.563290
  H     43.912580   51.379480   34.938200
  N     42.380340   51.134800   36.422170
  C     41.511020   52.036960   36.998600
  H     40.830950   51.727930   37.792450
  C     40.097810   47.276500   33.805290
  N     40.021700   48.594470   33.399320
  H     39.445530   49.012410   32.660560
  C     40.823590   49.325610   34.202130
  H     40.954460   50.401040   34.100280
  N     41.408730   48.549560   35.101720
  C     40.968160   47.269320   34.870550
  H     41.287960   46.448310   35.504610
  C     38.244520   48.451200   37.815120
  H     38.059540   49.380460   37.263390
  H     37.986650   48.642630   38.868520
  C     39.729490   48.130400   37.793330
  O     40.094290   46.936270   38.073510
  O     40.519970   49.081180   37.603160
  C     38.649270   43.852060   40.732450
  N     39.753730   43.461820   41.467720
  H     39.794960   42.883820   42.313100
  C     40.856180   43.950720   40.869180
  H     41.862480   43.735180   41.214080
  N     40.532240   44.652850   39.790090
  C     39.158370   44.585570   39.686800
  H     38.641460   45.072740   38.870460
  C     42.782610   43.203740   35.508470
  N     41.704570   42.563690   36.077930
  H     41.388060   41.608040   35.875710
  C     41.228290   43.346110   37.061760
  H     40.415080   43.059210   37.721310
  N     41.935610   44.469740   37.145150
  C     42.919350   44.391630   36.181620
  H     43.653100   45.179460   36.032020
  C     45.760580   48.096680   34.014330
  H     45.125100   47.651980   33.226250
  H     46.654420   47.464120   34.109100
  C     44.949120   48.018730   35.299610
  O     44.134840   48.949430   35.559490
  O     45.082570   46.978200   36.014400
  Fe    42.547040   49.053400   36.887910
  Fe    41.814540   46.033620   38.626910
  O     42.836730   47.183360   37.388650
  H     43.733720   46.943700   37.020750
  C     43.492780   47.060160   40.656390
  C     43.630650   47.675000   42.054110
  C     45.104020   47.591040   42.502550
  C     45.624330   46.153270   42.460030
  C     45.404420   45.480200   41.081990
  C     43.932480   45.599380   40.699580
  O     42.190540   47.119440   40.159430
  O     42.780390   47.011680   42.973730
  O     45.288030   48.115810   43.801220
  O     46.998630   46.178400   42.810160
  O     45.747790   44.117490   41.087680
  O     43.605370   45.053440   39.420590
  H     44.168910   47.609850   39.967160
  H     43.373660   48.746500   41.988830
  H     45.705350   48.166460   41.768170
  H     45.039970   45.572700   43.192000
  H     46.021070   46.038390   40.343060
  H     43.342940   45.091360   41.479180
  H     42.110130   47.687500   43.288820
  H     45.231620   49.115560   43.720660
  H     47.382930   45.254570   42.733010
  H     46.615330   43.983390   41.554250
  H     43.520060   44.039950   39.450210
  O     42.859590   49.695490   38.877790
  O     44.062590   49.608900   38.416870
  H     41.306060   54.248690   36.703110
  H     39.557590   46.431860   33.377730
  H     37.598150   47.663200   37.428670
  H     37.605410   43.645780   40.968820
  H     43.427410   42.770680   34.743770
  H     46.040940   49.089050   33.661240

 Total Charge           Charge          ....    1
 Multiplicity           Mult            ....   12
 Number of Electrons    NEL             ....  377
 Basis Dimension        Dim             .... 1627

ORBITAL ENERGIES
----------------
                 SPIN UP ORBITALS
  NO   OCC          E(Eh)            E(eV)
   0   1.0000    -256.240434     -6972.6567
   1   1.0000    -256.210804     -6971.8504
   2   1.0000     -30.234672      -822.7273
   3   1.0000     -30.112237      -819.3956
   4   1.0000     -26.090561      -709.9603
   5   1.0000     -26.086397      -709.8470
   6   1.0000     -26.083359      -709.7643
   7   1.0000     -25.982996      -707.0333
   8   1.0000     -25.979024      -706.9252
   9   1.0000     -25.978022      -706.8979
  10   1.0000     -19.259594      -524.0802
  11   1.0000     -19.258677      -524.0553
  12   1.0000     -19.256271      -523.9898
  13   1.0000     -19.214255      -522.8465
  14   1.0000     -19.197486      -522.3901
  15   1.0000     -19.192890      -522.2651
  16   1.0000     -19.191757      -522.2343
  17   1.0000     -19.184136      -522.0269
  18   1.0000     -19.180675      -521.9327
  19   1.0000     -19.166157      -521.5376
  20   1.0000     -19.164783      -521.5003
  21   1.0000     -19.157952      -521.3144
  22   1.0000     -19.138127      -520.7749
  23   1.0000     -14.492513      -394.3613
  24   1.0000     -14.492489      -394.3607
  25   1.0000     -14.477055      -393.9407
  26   1.0000     -14.476529      -393.9264
  27   1.0000     -14.434964      -392.7953
  28   1.0000     -14.433896      -392.7663
  29   1.0000     -14.415839      -392.2749
  30   1.0000     -14.410645      -392.1336
  31   1.0000     -10.369105      -282.1577
  32   1.0000     -10.347697      -281.5751
  33   1.0000     -10.347084      -281.5585
  34   1.0000     -10.333312      -281.1837
  35   1.0000     -10.328624      -281.0561
  36   1.0000     -10.328576      -281.0548
  37   1.0000     -10.314503      -280.6719
  38   1.0000     -10.308531      -280.5094
  39   1.0000     -10.306344      -280.4499
  40   1.0000     -10.298324      -280.2317
  41   1.0000     -10.298176      -280.2276
  42   1.0000     -10.298136      -280.2265
  43   1.0000     -10.297660      -280.2136
  44   1.0000     -10.291463      -280.0449
  45   1.0000     -10.288794      -279.9723
  46   1.0000     -10.284614      -279.8586
  47   1.0000     -10.284352      -279.8515
  48   1.0000     -10.283989      -279.8416
  49   1.0000     -10.280781      -279.7543
  50   1.0000     -10.280117      -279.7362
  51   1.0000     -10.245752      -278.8011
  52   1.0000     -10.220666      -278.1185
  53   1.0000      -3.720545      -101.2412
  54   1.0000      -3.477283       -94.6217
  55   1.0000      -2.502787       -68.1043
  56   1.0000      -2.493638       -67.8553
  57   1.0000      -2.488013       -67.7023
  58   1.0000      -2.241924       -61.0059
  59   1.0000      -2.241324       -60.9895
  60   1.0000      -2.238595       -60.9153
  61   1.0000      -1.229103       -33.4456
  62   1.0000      -1.145608       -31.1736
  63   1.0000      -1.143459       -31.1151
  64   1.0000      -1.137932       -30.9647
  65   1.0000      -1.136648       -30.9298
  66   1.0000      -1.120337       -30.4859
  67   1.0000      -1.118943       -30.4480
  68   1.0000      -1.112489       -30.2724
  69   1.0000      -1.106448       -30.1080
  70   1.0000      -1.094219       -29.7752
  71   1.0000      -1.081508       -29.4293
  72   1.0000      -1.065957       -29.0062
  73   1.0000      -1.055138       -28.7118
  74   1.0000      -1.042165       -28.3588
  75   1.0000      -1.019377       -27.7387
  76   1.0000      -1.007935       -27.4273
  77   1.0000      -0.995433       -27.0871
  78   1.0000      -0.992875       -27.0175
  79   1.0000      -0.976659       -26.5762
  80   1.0000      -0.974385       -26.5144
  81   1.0000      -0.878904       -23.9162
  82   1.0000      -0.862345       -23.4656
  83   1.0000      -0.859189       -23.3797
  84   1.0000      -0.844822       -22.9888
  85   1.0000      -0.843288       -22.9470
  86   1.0000      -0.833801       -22.6889
  87   1.0000      -0.807486       -21.9728
  88   1.0000      -0.797726       -21.7072
  89   1.0000      -0.780486       -21.2381
  90   1.0000      -0.778130       -21.1740
  91   1.0000      -0.735598       -20.0166
  92   1.0000      -0.734478       -19.9862
  93   1.0000      -0.717894       -19.5349
  94   1.0000      -0.716910       -19.5081
  95   1.0000      -0.709096       -19.2955
  96   1.0000      -0.706929       -19.2365
  97   1.0000      -0.699563       -19.0361
  98   1.0000      -0.692689       -18.8490
  99   1.0000      -0.689657       -18.7665
 100   1.0000      -0.682070       -18.5601
 101   1.0000      -0.676368       -18.4049
 102   1.0000      -0.670362       -18.2415
 103   1.0000      -0.663213       -18.0469
 104   1.0000      -0.658078       -17.9072
 105   1.0000      -0.647420       -17.6172
 106   1.0000      -0.636555       -17.3215
 107   1.0000      -0.620206       -16.8767
 108   1.0000      -0.609565       -16.5871
 109   1.0000      -0.593404       -16.1473
 110   1.0000      -0.592723       -16.1288
 111   1.0000      -0.582015       -15.8374
 112   1.0000      -0.580513       -15.7965
 113   1.0000      -0.571028       -15.5385
 114   1.0000      -0.568941       -15.4817
 115   1.0000      -0.563359       -15.3298
 116   1.0000      -0.560454       -15.2507
 117   1.0000      -0.558836       -15.2067
 118   1.0000      -0.558480       -15.1970
 119   1.0000      -0.553480       -15.0610
 120   1.0000      -0.553068       -15.0497
 121   1.0000      -0.550372       -14.9764
 122   1.0000      -0.548415       -14.9231
 123   1.0000      -0.544594       -14.8192
 124   1.0000      -0.542919       -14.7736
 125   1.0000      -0.541020       -14.7219
 126   1.0000      -0.538844       -14.6627
 127   1.0000      -0.536045       -14.5865
 128   1.0000      -0.534333       -14.5399
 129   1.0000      -0.533812       -14.5258
 130   1.0000      -0.531689       -14.4680
 131   1.0000      -0.530682       -14.4406
 132   1.0000      -0.528581       -14.3834
 133   1.0000      -0.526605       -14.3297
 134   1.0000      -0.522716       -14.2238
 135   1.0000      -0.521484       -14.1903
 136   1.0000      -0.517918       -14.0933
 137   1.0000      -0.513560       -13.9747
 138   1.0000      -0.513464       -13.9721
 139   1.0000      -0.511355       -13.9147
 140   1.0000      -0.508948       -13.8492
 141   1.0000      -0.508073       -13.8254
 142   1.0000      -0.507152       -13.8003
 143   1.0000      -0.500633       -13.6229
 144   1.0000      -0.497014       -13.5244
 145   1.0000      -0.494710       -13.4617
 146   1.0000      -0.492220       -13.3940
 147   1.0000      -0.483375       -13.1533
 148   1.0000      -0.477199       -12.9852
 149   1.0000      -0.475654       -12.9432
 150   1.0000      -0.474522       -12.9124
 151   1.0000      -0.464606       -12.6426
 152   1.0000      -0.460127       -12.5207
 153   1.0000      -0.454518       -12.3681
 154   1.0000      -0.448825       -12.2131
 155   1.0000      -0.445998       -12.1362
 156   1.0000      -0.442956       -12.0534
 157   1.0000      -0.432220       -11.7613
 158   1.0000      -0.429841       -11.6966
 159   1.0000      -0.422717       -11.5027
 160   1.0000      -0.418979       -11.4010
 161   1.0000      -0.417234       -11.3535
 162   1.0000      -0.412792       -11.2326
 163   1.0000      -0.408868       -11.1259
 164   1.0000      -0.407596       -11.0913
 165   1.0000      -0.400516       -10.8986
 166   1.0000      -0.395323       -10.7573
 167   1.0000      -0.393151       -10.6982
 168   1.0000      -0.380195       -10.3456
 169   1.0000      -0.379089       -10.3155
 170   1.0000      -0.370108       -10.0711
 171   1.0000      -0.366808        -9.9814
 172   1.0000      -0.363943        -9.9034
 173   1.0000      -0.360610        -9.8127
 174   1.0000      -0.356213        -9.6931
 175   1.0000      -0.354051        -9.6342
 176   1.0000      -0.350623        -9.5409
 177   1.0000      -0.346294        -9.4231
 178   1.0000      -0.341532        -9.2936
 179   1.0000      -0.340323        -9.2607
 180   1.0000      -0.338500        -9.2111
 181   1.0000      -0.333870        -9.0851
 182   1.0000      -0.332803        -9.0560
 183   1.0000      -0.330753        -9.0003
 184   1.0000      -0.330390        -8.9904
 185   1.0000      -0.315265        -8.5788
 186   1.0000      -0.311869        -8.4864
 187   1.0000      -0.306230        -8.3329
 188   1.0000      -0.294601        -8.0165
 189   0.0000      -0.161125        -4.3844
 190   0.0000      -0.157205        -4.2778
 191   0.0000      -0.155861        -4.2412
 192   0.0000      -0.113212        -3.0807
 193   0.0000      -0.109634        -2.9833

                 SPIN DOWN ORBITALS
  NO   OCC          E(Eh)            E(eV)
   0   1.0000    -256.238636     -6972.6078
   1   1.0000    -256.212495     -6971.8964
   2   1.0000     -30.202218      -821.8441
   3   1.0000     -30.142499      -820.2191
   4   1.0000     -26.060986      -709.1555
   5   1.0000     -26.052572      -708.9265
   6   1.0000     -26.051045      -708.8850
   7   1.0000     -26.012142      -707.8264
   8   1.0000     -26.009763      -707.7616
   9   1.0000     -26.008261      -707.7208
  10   1.0000     -19.257542      -524.0244
  11   1.0000     -19.252000      -523.8736
  12   1.0000     -19.248547      -523.7796
  13   1.0000     -19.214238      -522.8460
  14   1.0000     -19.197469      -522.3897
  15   1.0000     -19.191754      -522.2342
  16   1.0000     -19.189320      -522.1679
  17   1.0000     -19.184087      -522.0255
  18   1.0000     -19.182714      -521.9882
  19   1.0000     -19.164316      -521.4875
  20   1.0000     -19.161025      -521.3980
  21   1.0000     -19.155844      -521.2570
  22   1.0000     -19.138139      -520.7752
  23   1.0000     -14.492428      -394.3590
  24   1.0000     -14.492403      -394.3583
  25   1.0000     -14.477143      -393.9431
  26   1.0000     -14.476599      -393.9283
  27   1.0000     -14.433213      -392.7477
  28   1.0000     -14.432089      -392.7171
  29   1.0000     -14.417478      -392.3195
  30   1.0000     -14.412783      -392.1918
  31   1.0000     -10.369039      -282.1559
  32   1.0000     -10.347666      -281.5743
  33   1.0000     -10.346966      -281.5553
  34   1.0000     -10.333311      -281.1837
  35   1.0000     -10.328721      -281.0588
  36   1.0000     -10.328658      -281.0571
  37   1.0000     -10.314455      -280.6706
  38   1.0000     -10.308479      -280.5080
  39   1.0000     -10.306136      -280.4442
  40   1.0000     -10.298387      -280.2333
  41   1.0000     -10.298143      -280.2267
  42   1.0000     -10.298083      -280.2251
  43   1.0000     -10.297696      -280.2145
  44   1.0000     -10.291453      -280.0447
  45   1.0000     -10.288787      -279.9721
  46   1.0000     -10.284442      -279.8539
  47   1.0000     -10.284243      -279.8485
  48   1.0000     -10.284046      -279.8431
  49   1.0000     -10.280824      -279.7555
  50   1.0000     -10.280120      -279.7363
  51   1.0000     -10.245695      -278.7995
  52   1.0000     -10.220814      -278.1225
  53   1.0000      -3.689130      -100.3863
  54   1.0000      -3.504218       -95.3546
  55   1.0000      -2.477073       -67.4046
  56   1.0000      -2.459015       -66.9132
  57   1.0000      -2.455573       -66.8195
  58   1.0000      -2.270042       -61.7710
  59   1.0000      -2.266083       -61.6633
  60   1.0000      -2.264297       -61.6147
  61   1.0000      -1.214877       -33.0585
  62   1.0000      -1.142710       -31.0947
  63   1.0000      -1.141558       -31.0634
  64   1.0000      -1.136999       -30.9393
  65   1.0000      -1.135834       -30.9076
  66   1.0000      -1.121199       -30.5094
  67   1.0000      -1.119829       -30.4721
  68   1.0000      -1.112100       -30.2618
  69   1.0000      -1.109650       -30.1951
  70   1.0000      -1.093810       -29.7641
  71   1.0000      -1.081166       -29.4200
  72   1.0000      -1.065576       -28.9958
  73   1.0000      -1.052912       -28.6512
  74   1.0000      -1.024037       -27.8655
  75   1.0000      -1.019478       -27.7414
  76   1.0000      -1.008650       -27.4468
  77   1.0000      -0.993799       -27.0426
  78   1.0000      -0.991185       -26.9715
  79   1.0000      -0.978366       -26.6227
  80   1.0000      -0.976220       -26.5643
  81   1.0000      -0.876844       -23.8601
  82   1.0000      -0.861992       -23.4560
  83   1.0000      -0.858794       -23.3690
  84   1.0000      -0.845215       -22.9995
  85   1.0000      -0.843656       -22.9570
  86   1.0000      -0.811478       -22.0814
  87   1.0000      -0.806706       -21.9516
  88   1.0000      -0.797008       -21.6877
  89   1.0000      -0.778942       -21.1961
  90   1.0000      -0.777711       -21.1626
  91   1.0000      -0.734308       -19.9815
  92   1.0000      -0.733233       -19.9523
  93   1.0000      -0.719172       -19.5697
  94   1.0000      -0.718206       -19.5434
  95   1.0000      -0.708146       -19.2696
  96   1.0000      -0.705987       -19.2109
  97   1.0000      -0.698664       -19.0116
  98   1.0000      -0.693757       -18.8781
  99   1.0000      -0.690738       -18.7959
 100   1.0000      -0.681455       -18.5433
 101   1.0000      -0.675877       -18.3915
 102   1.0000      -0.667043       -18.1512
 103   1.0000      -0.663781       -18.0624
 104   1.0000      -0.658667       -17.9232
 105   1.0000      -0.646026       -17.5793
 106   1.0000      -0.629905       -17.1406
 107   1.0000      -0.618643       -16.8341
 108   1.0000      -0.607855       -16.5406
 109   1.0000      -0.600885       -16.3509
 110   1.0000      -0.591281       -16.0896
 111   1.0000      -0.579686       -15.7741
 112   1.0000      -0.577044       -15.7022
 113   1.0000      -0.565480       -15.3875
 114   1.0000      -0.562039       -15.2939
 115   1.0000      -0.560079       -15.2405
 116   1.0000      -0.558338       -15.1932
 117   1.0000      -0.557662       -15.1748
 118   1.0000      -0.554797       -15.0968
 119   1.0000      -0.554030       -15.0759
 120   1.0000      -0.552729       -15.0405
 121   1.0000      -0.550891       -14.9905
 122   1.0000      -0.549098       -14.9417
 123   1.0000      -0.546444       -14.8695
 124   1.0000      -0.544334       -14.8121
 125   1.0000      -0.543027       -14.7765
 126   1.0000      -0.540153       -14.6983
 127   1.0000      -0.535136       -14.5618
 128   1.0000      -0.534532       -14.5454
 129   1.0000      -0.532589       -14.4925
 130   1.0000      -0.527284       -14.3481
 131   1.0000      -0.526138       -14.3169
 132   1.0000      -0.525365       -14.2959
 133   1.0000      -0.521433       -14.1889
 134   1.0000      -0.517976       -14.0948
 135   1.0000      -0.513152       -13.9636
 136   1.0000      -0.512036       -13.9332
 137   1.0000      -0.511149       -13.9091
 138   1.0000      -0.509440       -13.8626
 139   1.0000      -0.506700       -13.7880
 140   1.0000      -0.500899       -13.6302
 141   1.0000      -0.498905       -13.5759
 142   1.0000      -0.495403       -13.4806
 143   1.0000      -0.494179       -13.4473
 144   1.0000      -0.482017       -13.1163
 145   1.0000      -0.477857       -13.0032
 146   1.0000      -0.477253       -12.9867
 147   1.0000      -0.473042       -12.8721
 148   1.0000      -0.470713       -12.8088
 149   1.0000      -0.467894       -12.7320
 150   1.0000      -0.463598       -12.6151
 151   1.0000      -0.457226       -12.4417
 152   1.0000      -0.454450       -12.3662
 153   1.0000      -0.451994       -12.2994
 154   1.0000      -0.447239       -12.1700
 155   1.0000      -0.445671       -12.1273
 156   1.0000      -0.441552       -12.0152
 157   1.0000      -0.440283       -11.9807
 158   1.0000      -0.425584       -11.5807
 159   1.0000      -0.422522       -11.4974
 160   1.0000      -0.418811       -11.3964
 161   1.0000      -0.415717       -11.3122
 162   1.0000      -0.411896       -11.2083
 163   1.0000      -0.409907       -11.1541
 164   1.0000      -0.407109       -11.0780
 165   1.0000      -0.402278       -10.9466
 166   1.0000      -0.394131       -10.7248
 167   1.0000      -0.392343       -10.6762
 168   1.0000      -0.379903       -10.3377
 169   1.0000      -0.375626       -10.2213
 170   1.0000      -0.370692       -10.0870
 171   1.0000      -0.366564        -9.9747
 172   1.0000      -0.362132        -9.8541
 173   1.0000      -0.356875        -9.7111
 174   1.0000      -0.354626        -9.6499
 175   1.0000      -0.351092        -9.5537
 176   1.0000      -0.347298        -9.4505
 177   1.0000      -0.346440        -9.4271
 178   1.0000      -0.345004        -9.3880
 179   1.0000      -0.337805        -9.1921
 180   1.0000      -0.335393        -9.1265
 181   1.0000      -0.331670        -9.0252
 182   1.0000      -0.330713        -8.9992
 183   1.0000      -0.320682        -8.7262
 184   1.0000      -0.319111        -8.6834
 185   1.0000      -0.312826        -8.5124
 186   1.0000      -0.308809        -8.4031
 187   1.0000      -0.289428        -7.8757
 188   0.0000      -0.185181        -5.0390
 189   0.0000      -0.183404        -4.9907
 190   0.0000      -0.176689        -4.8080
 191   0.0000      -0.155982        -4.2445
 192   0.0000      -0.142695        -3.8829

MULLIKEN ATOMIC CHARGES AND SPIN POPULATIONS
--------------------------------------------
   0 C :   -0.035953   -0.000874
   1 N :   -0.218789   -0.002324
   2 H :    0.256157   -0.001124
   3 C :    0.052738   -0.008257
   4 H :    0.193522    0.000097
   5 N :   -0.132222   -0.038409
   6 C :   -0.086648   -0.001671
   7 H :    0.162312   -0.000082
   8 C :   -0.068358   -0.002973
   9 N :   -0.228509   -0.001604
  10 H :    0.249325   -0.001451
  11 C :    0.062023   -0.000524
  12 H :    0.172515   -0.000773
  13 N :   -0.090301   -0.047507
  14 C :   -0.092819   -0.000074
  15 H :    0.186007    0.001199
  16 C :   -0.366901    0.002837
  17 H :    0.128564    0.001371
  18 H :    0.139320    0.000534
  19 C :    0.493496    0.001742
  20 O :   -0.515307    0.085029
  21 O :   -0.433747   -0.037766
  22 C :   -0.033359    0.001874
  23 N :   -0.231352    0.002740
  24 H :    0.257803    0.000978
  25 C :    0.093030    0.001713
  26 H :    0.157953    0.000385
  27 N :   -0.178570    0.038760
  28 C :   -0.098830    0.001333
  29 H :    0.166607    0.000206
  30 C :   -0.035514    0.002703
  31 N :   -0.228181    0.002583
  32 H :    0.255420    0.001114
  33 C :    0.064835    0.006166
  34 H :    0.190965    0.000300
  35 N :   -0.192579    0.040315
  36 C :   -0.127317   -0.001260
  37 H :    0.219209    0.000643
  38 C :   -0.349752   -0.006767
  39 H :    0.109241    0.000179
  40 H :    0.135096   -0.000953
  41 C :    0.417940   -0.000044
  42 O :   -0.463671   -0.075659
  43 O :   -0.533099   -0.001435
  44 Fe:    0.797104   -4.130083
  45 Fe:    0.787511    4.212933
  46 O :   -0.848183    0.011785
  47 H :    0.363141    0.000501
  48 C :    0.237561   -0.001605
  49 C :    0.005165    0.010874
  50 C :    0.107125    0.001878
  51 C :    0.052065    0.000524
  52 C :    0.036063    0.002139
  53 C :    0.076686    0.008106
  54 O :   -0.522836    0.337999
  55 O :   -0.464983    0.000287
  56 O :   -0.423574    0.001425
  57 O :   -0.395030    0.000470
  58 O :   -0.445604    0.000426
  59 O :   -0.450037    0.039589
  60 H :    0.108009    0.007804
  61 H :    0.099169   -0.000519
  62 H :    0.081188   -0.000207
  63 H :    0.073920    0.000021
  64 H :    0.088428   -0.000027
  65 H :    0.077004    0.000364
  66 H :    0.318565    0.000010
  67 H :    0.304912   -0.000053
  68 H :    0.272016   -0.000009
  69 H :    0.285246    0.000020
  70 H :    0.341989    0.002240
  71 O :   -0.141319    0.244352
  72 O :   -0.152766    0.287485
  73 H :    0.167778   -0.000656
  74 H :    0.157429   -0.000774
  75 H :    0.119006   -0.001930
  76 H :    0.174459    0.000567
  77 H :    0.176832    0.000552
  78 H :    0.113661    0.000244
Sum of atomic charges         :    1.0000000

LOEWDIN ATOMIC CHARGES AND SPIN POPULATIONS
-------------------------------------------
   0 C :   -0.214770   -0.001565
   1 N :    0.194962   -0.002661
   2 H :    0.212019   -0.000596
   3 C :   -0.247459   -0.008277
   4 H :    0.149721   -0.000108
   5 N :    0.150039   -0.045479
   6 C :   -0.206897   -0.003420
   7 H :    0.149478   -0.000066
   8 C :   -0.220173   -0.002566
   9 N :    0.193024   -0.001564
  10 H :    0.206599   -0.000749
  11 C :   -0.255511   -0.003579
  12 H :    0.141430   -0.000239
  13 N :    0.166567   -0.057564
  14 C :   -0.210037   -0.002889
  15 H :    0.150083   -0.000394
  16 C :   -0.258974    0.002012
  17 H :    0.130973    0.000789
  18 H :    0.144540    0.000381
  19 C :   -0.518253    0.007198
  20 O :    0.078461    0.094394
  21 O :    0.119704   -0.048825
  22 C :   -0.205669    0.001772
  23 N :    0.201789    0.002325
  24 H :    0.210977    0.000549
  25 C :   -0.257703    0.003756
  26 H :    0.137964    0.000168
  27 N :    0.145719    0.047724
  28 C :   -0.220548    0.003340
  29 H :    0.145198    0.000281
  30 C :   -0.208541    0.002258
  31 N :    0.199967    0.002732
  32 H :    0.210611    0.000624
  33 C :   -0.262830    0.007191
  34 H :    0.144056    0.000105
  35 N :    0.136220    0.047427
  36 C :   -0.208600    0.002263
  37 H :    0.153427    0.000128
  38 C :   -0.272803   -0.004676
  39 H :    0.135496    0.000040
  40 H :    0.132680   -0.000671
  41 C :   -0.568498   -0.006663
  42 O :    0.072086   -0.079110
  43 O :   -0.042327   -0.000245
  44 Fe:    0.190004   -4.073801
  45 Fe:    0.287964    4.158954
  46 O :   -0.217679    0.010078
  47 H :    0.157190    0.000966
  48 C :   -0.340874    0.023295
  49 C :   -0.314898    0.007940
  50 C :   -0.320322    0.001387
  51 C :   -0.310876    0.000342
  52 C :   -0.323762    0.002242
  53 C :   -0.286039    0.008313
  54 O :   -0.006371    0.318875
  55 O :   -0.014488    0.000365
  56 O :   -0.001969    0.001386
  57 O :    0.000256    0.000465
  58 O :   -0.011339    0.000529
  59 O :    0.099413    0.050421
  60 H :    0.157638    0.005688
  61 H :    0.143867   -0.000181
  62 H :    0.147977   -0.000050
  63 H :    0.144379    0.000014
  64 H :    0.147719   -0.000009
  65 H :    0.145128    0.000109
  66 H :    0.203989    0.000075
  67 H :    0.199242    0.000009
  68 H :    0.179015    0.000008
  69 H :    0.181333    0.000049
  70 H :    0.222810    0.002446
  71 O :   -0.048486    0.244483
  72 O :   -0.066658    0.281082
  73 H :    0.144110   -0.000335
  74 H :    0.141680   -0.000403
  75 H :    0.122889   -0.000933
  76 H :    0.147404    0.000341
  77 H :    0.147819    0.000343
  78 H :    0.117738   -0.000045

  Mayer bond orders larger than 0.100000
B(  0-C ,  1-N ) :   1.1447 B(  0-C ,  6-C ) :   1.6312 B(  0-C , 73-H ) :   0.9408
B(  1-N ,  2-H ) :   0.9056 B(  1-N ,  3-C ) :   1.2835 B(  3-C ,  4-H ) :   0.9378
B(  3-C ,  5-N ) :   1.4574 B(  5-N ,  6-C ) :   1.2079 B(  5-N , 44-Fe) :   0.5422
B(  6-C ,  7-H ) :   0.9625 B(  8-C ,  9-N ) :   1.1564 B(  8-C , 14-C ) :   1.6306
B(  8-C , 74-H ) :   0.9463 B(  9-N , 10-H ) :   0.9093 B(  9-N , 11-C ) :   1.2820
B( 11-C , 12-H ) :   0.9453 B( 11-C , 13-N ) :   1.4962 B( 13-N , 14-C ) :   1.2259
B( 13-N , 44-Fe) :   0.4174 B( 14-C , 15-H ) :   0.9500 B( 16-C , 17-H ) :   0.9834
B( 16-C , 18-H ) :   0.9513 B( 16-C , 19-C ) :   0.9450 B( 16-C , 75-H ) :   0.9705
B( 19-C , 20-O ) :   1.3905 B( 19-C , 21-O ) :   1.5878 B( 20-O , 45-Fe) :   0.5005
B( 21-O , 44-Fe) :   0.3360 B( 22-C , 23-N ) :   1.1452 B( 22-C , 28-C ) :   1.6347
B( 22-C , 76-H ) :   0.9418 B( 23-N , 24-H ) :   0.9055 B( 23-N , 25-C ) :   1.3101
B( 25-C , 26-H ) :   0.9378 B( 25-C , 27-N ) :   1.4524 B( 27-N , 28-C ) :   1.2168
B( 27-N , 45-Fe) :   0.4229 B( 28-C , 29-H ) :   0.9601 B( 30-C , 31-N ) :   1.1512
B( 30-C , 36-C ) :   1.6525 B( 30-C , 77-H ) :   0.9358 B( 31-N , 32-H ) :   0.9062
B( 31-N , 33-C ) :   1.3020 B( 33-C , 34-H ) :   0.9409 B( 33-C , 35-N ) :   1.4578
B( 35-N , 36-C ) :   1.1830 B( 35-N , 45-Fe) :   0.4687 B( 36-C , 37-H ) :   0.9170
B( 38-C , 39-H ) :   0.9464 B( 38-C , 40-H ) :   0.9810 B( 38-C , 41-C ) :   0.9657
B( 38-C , 78-H ) :   0.9704 B( 41-C , 42-O ) :   1.4591 B( 41-C , 43-O ) :   1.6208
B( 42-O , 44-Fe) :   0.4574 B( 43-O , 47-H ) :   0.1696 B( 44-Fe, 46-O ) :   0.4211
B( 44-Fe, 71-O ) :   0.5168 B( 44-Fe, 72-O ) :   0.4253 B( 45-Fe, 46-O ) :   0.5025
B( 45-Fe, 54-O ) :   0.9446 B( 45-Fe, 59-O ) :   0.2687 B( 46-O , 47-H ) :   0.7459
B( 48-C , 49-C ) :   0.8547 B( 48-C , 53-C ) :   0.9341 B( 48-C , 54-O ) :   0.8688
B( 48-C , 55-O ) :  -0.1416 B( 48-C , 60-H ) :   0.9541 B( 49-C , 50-C ) :   0.9038
B( 49-C , 55-O ) :   1.2092 B( 49-C , 61-H ) :   0.9647 B( 50-C , 51-C ) :   0.9291
B( 50-C , 56-O ) :   1.0818 B( 50-C , 62-H ) :   0.9669 B( 51-C , 52-C ) :   0.9556
B( 51-C , 57-O ) :   1.0438 B( 51-C , 63-H ) :   0.9669 B( 52-C , 53-C ) :   0.9331
B( 52-C , 58-O ) :   1.0305 B( 52-C , 64-H ) :   0.9741 B( 53-C , 59-O ) :   0.7644
B( 53-C , 65-H ) :   0.9647 B( 55-O , 66-H ) :   0.8876 B( 56-O , 67-H ) :   0.8894
B( 57-O , 68-H ) :   0.8939 B( 58-O , 69-H ) :   0.8851 B( 59-O , 70-H ) :   0.8531
B( 71-O , 72-O ) :   1.3078

FINAL SINGLE POINT ENERGY     -4801.657164500371

DIPOLE MOMENT
-------------
                                X             Y             Z
Electronic contribution:     -6.99648       6.67796      -6.25886
Nuclear contribution   :      2.82395      -8.54805       3.28465
                        -----------------------------------------
Total Dipole Moment    :     -4.17253      -1.87010      -2.97420
                        -----------------------------------------
Magnitude (a.u.)       :      5.45465
Magnitude (Debye)      :     13.86461

Rotational constants in cm-1:     0.002821     0.001898     0.001592
Rotational constants in MHz :    84.561491    56.909288    47.739255

                             ****ORCA TERMINATED NORMALLY****
TOTAL RUN TIME: 0 days 5 hours 56 minutes 15 seconds 197 msec
