 Gaussian 16, Revision A.03,
 Gaussian 16:  ES64L-G16RevA.03 25-Dec-2016

 ---------------
 #p BLYP/cc-pVTZ
 ---------------

 --------------------------------------
 2,7-dicl-dibenzene SP RKS BLYP cc-pVTZ
 --------------------------------------
 Symbolic Z-matrix:
 Charge =  0 Multiplicity = 1

                         Standard orientation:
 ---------------------------------------------------------------------
 Center     Atomic      Atomic             Coordinates (Angstroms)
 Number     Number       Type             X           Y           Z
 ---------------------------------------------------------------------
      1          6           0        2.244851    2.071295    0.751392
      2          6           0        3.304207    1.300888    0.295737
      3          6           0        3.045185    0.017738   -0.158120
      4          6           0        1.759769   -0.498571   -0.162997
      5          6           0        0.693974    0.275570    0.295604
      6          6           0        0.952908    1.567889    0.752876
      7          1           0        2.431824    3.072719    1.115696
      8          1           0        4.313802    1.684902    0.291253
      9          1           0        1.591308   -1.495485   -0.542306
     10          1           0        0.143223    2.177007    1.130202
     11          6           0       -0.693966   -0.275587    0.295567
     12          6           0       -1.759785    0.498546   -0.163005
     13          6           0       -0.952881   -1.567887    0.752886
     14          6           0       -3.045206   -0.017708   -0.158130
     15          1           0       -1.591168    1.495446   -0.542292
     16          6           0       -2.244844   -2.071272    0.751396
     17          1           0       -0.143236   -2.177042    1.130233
     18          6           0       -3.304192   -1.300884    0.295735
     19          1           0       -2.431844   -3.072681    1.115730
     20          1           0       -4.313786   -1.684904    0.291264
     21         17           0        4.357579   -0.965630   -0.743634
     22         17           0       -4.357593    0.965627   -0.743627
 ---------------------------------------------------------------------

 SCF Done:  E(RB-LYP) =  -1382.49361326     A.U. after   15 cycles

 The electronic state is 1-A.
 Alpha  occ. eigenvalues -- -100.76830-100.76829  -9.97538  -9.97538  -9.93826
 Alpha  occ. eigenvalues --   -9.93808  -9.92621  -9.92621  -9.92605  -9.92605
 Alpha  occ. eigenvalues --   -9.92558  -9.92558  -9.92192  -9.92192  -9.18416
 Alpha  occ. eigenvalues --   -9.18415  -7.01729  -7.01729  -7.00722  -7.00721
 Alpha  occ. eigenvalues --   -7.00659  -7.00659  -0.81938  -0.81279  -0.77535
 Alpha  occ. eigenvalues --   -0.75717  -0.71045  -0.67964  -0.66520  -0.65913
 Alpha  occ. eigenvalues --   -0.57915  -0.56219  -0.53949  -0.52568  -0.48302
 Alpha  occ. eigenvalues --   -0.45996  -0.43774  -0.42576  -0.41586  -0.40466
 Alpha  occ. eigenvalues --   -0.39079  -0.38838  -0.38635  -0.36192  -0.35474
 Alpha  occ. eigenvalues --   -0.34170  -0.32981  -0.31902  -0.31435  -0.30337
 Alpha  occ. eigenvalues --   -0.29284  -0.27279  -0.27019  -0.25449  -0.22921
 Alpha  occ. eigenvalues --   -0.22350  -0.21476
 Alpha virt. eigenvalues --   -0.06974  -0.05017  -0.04969  -0.02661  -0.00731
 Alpha virt. eigenvalues --   -0.00402   0.03221   0.03256   0.05501   0.05717
 Alpha virt. eigenvalues --    0.06998   0.08028   0.08088   0.09104   0.10179

 Mulliken charges:
               1
     1  C   -0.075804
     2  C   -0.108754
     3  C    0.080647
     4  C   -0.131191
     5  C    0.073130
     6  C   -0.115202
     7  H    0.093500
     8  H    0.101947
     9  H    0.100855
    10  H    0.094323
    11  C    0.073129
    12  C   -0.131173
    13  C   -0.115212
    14  C    0.080621
    15  H    0.100851
    16  C   -0.075799
    17  H    0.094325
    18  C   -0.108743
    19  H    0.093497
    20  H    0.101942
    21  Cl  -0.113454
    22  Cl  -0.113433
 Sum of Mulliken charges =  -0.00000

 Dipole moment (field-independent basis, Debye):
    X=             -0.0001    Y=              0.0001    Z=              1.0758  Tot=              1.0758
 Quadrupole moment (field-independent basis, Debye-Ang):
   XX=           -101.1220   YY=            -87.2659   ZZ=            -97.5701
   XY=              7.8897   XZ=              0.0002   YZ=             -0.0001

 Normal termination of Gaussian 16 at Wed May  4 14:33:14 2022.
