                         Program Version 5.0.0 -  RELEASE  -
|  1> ! RKS B3LYP/G def2-SVP NoRI pal8
|  2>
|  3> %TDDFT
|  4>     NRoots      18
|  5>     TDA         true
|  6>     Printlevel  3
|  7>     DoSOC       true
|  8> end
|  9>
| 10> *xyz 0 1
| 11>  C    0.275339664905    -0.458399102833    2.743143403700
| 12>  C    1.279006847437    0.228940885018    2.053971964849
| 13>  C    0.939622874510    1.231612429254    1.139882080053
| 14>  C    -0.402424351875    1.548739845978    0.916642984919
| 15>  C    -1.406698760230    0.863818487970    1.607817662361
| 16>  C    -1.068977646094    -0.140122820687    2.520286918876
| 17>  H    0.539603706561    -1.241898862747    3.454437267994
| 18>  H    2.326588004763    -0.022157300550    2.223964486000
| 19>  H    1.720832792185    1.755051800886    0.589301977320
| 20>  H    -0.666403863041    2.316697890287    0.190217604195
| 21>  H    -2.454419062639    1.106539982179    1.427829033755
| 22>  H    -1.852402130973    -0.676071740128    3.057547529767
| 23>  C    0.408637071405    -1.547138908805    -0.917226197790
| 24>  C    1.408439887136    -0.859383018412    -1.612070091004
| 25>  C    1.064503595865    0.142964356786    -2.523961075999
| 26>  C    -0.281557623713    0.456819421173    -2.742536095802
| 27>  C    -1.280735610329    -0.233330090254    -2.049663508775
| 28>  C    -0.935147882928    -1.234436127477    -1.136182768651
| 29>  H    0.677439446996    -2.313917010173    -0.191321675612
| 30>  H    2.457518043610    -1.098728344182    -1.435489418777
| 31>  H    1.844432727521    0.681106942624    -3.064104221734
| 32>  H    -0.550678756658    1.239051458125    -3.453403954344
| 33>  H    -2.329668169039    0.014352845763    -2.216299435382
| 34>  H    -1.712850805428    -1.760113019904    -0.582784469921
| 35> *
| 36>
| 37>                          ****END OF INPUT****

CARTESIAN COORDINATES (ANGSTROEM)
---------------------------------
  C      0.275340   -0.458399    2.743143
  C      1.279007    0.228941    2.053972
  C      0.939623    1.231612    1.139882
  C     -0.402424    1.548740    0.916643
  C     -1.406699    0.863818    1.607818
  C     -1.068978   -0.140123    2.520287
  H      0.539604   -1.241899    3.454437
  H      2.326588   -0.022157    2.223964
  H      1.720833    1.755052    0.589302
  H     -0.666404    2.316698    0.190218
  H     -2.454419    1.106540    1.427829
  H     -1.852402   -0.676072    3.057548
  C      0.408637   -1.547139   -0.917226
  C      1.408440   -0.859383   -1.612070
  C      1.064504    0.142964   -2.523961
  C     -0.281558    0.456819   -2.742536
  C     -1.280736   -0.233330   -2.049664
  C     -0.935148   -1.234436   -1.136183
  H      0.677439   -2.313917   -0.191322
  H      2.457518   -1.098728   -1.435489
  H      1.844433    0.681107   -3.064104
  H     -0.550679    1.239051   -3.453404
  H     -2.329668    0.014353   -2.216299
  H     -1.712851   -1.760113   -0.582784

 Total Charge           Charge          ....    0
 Multiplicity           Mult            ....    1
 Number of Electrons    NEL             ....   84
 Basis Dimension        Dim             ....  228

ORBITAL ENERGIES
----------------

  NO   OCC          E(Eh)            E(eV)
   0   2.0000     -10.187876      -277.2262
   1   2.0000     -10.187861      -277.2258
   2   2.0000     -10.187514      -277.2163
   3   2.0000     -10.187503      -277.2161
   4   2.0000     -10.187114      -277.2055
   5   2.0000     -10.187102      -277.2051
   6   2.0000     -10.186972      -277.2016
   7   2.0000     -10.186965      -277.2014
   8   2.0000     -10.186054      -277.1766
   9   2.0000     -10.185990      -277.1749
  10   2.0000     -10.185493      -277.1613
  11   2.0000     -10.185486      -277.1612
  12   2.0000      -0.842912       -22.9368
  13   2.0000      -0.839623       -22.8473
  14   2.0000      -0.734908       -19.9979
  15   2.0000      -0.733399       -19.9568
  16   2.0000      -0.733257       -19.9529
  17   2.0000      -0.732115       -19.9219
  18   2.0000      -0.593460       -16.1489
  19   2.0000      -0.593251       -16.1432
  20   2.0000      -0.593220       -16.1423
  21   2.0000      -0.592959       -16.1352
  22   2.0000      -0.518737       -14.1155
  23   2.0000      -0.517573       -14.0839
  24   2.0000      -0.453737       -12.3468
  25   2.0000      -0.453513       -12.3407
  26   2.0000      -0.444497       -12.0954
  27   2.0000      -0.444126       -12.0853
  28   2.0000      -0.419225       -11.4077
  29   2.0000      -0.418483       -11.3875
  30   2.0000      -0.418350       -11.3839
  31   2.0000      -0.417867       -11.3707
  32   2.0000      -0.375912       -10.2291
  33   2.0000      -0.352422        -9.5899
  34   2.0000      -0.342740        -9.3264
  35   2.0000      -0.342702        -9.3254
  36   2.0000      -0.342564        -9.3216
  37   2.0000      -0.342458        -9.3188
  38   2.0000      -0.261489        -7.1155
  39   2.0000      -0.250876        -6.8267
  40   2.0000      -0.250862        -6.8263
  41   2.0000      -0.242202        -6.5906
  42   0.0000      -0.006795        -0.1849
  43   0.0000      -0.005242        -0.1426
  44   0.0000      -0.004645        -0.1264
  45   0.0000      -0.003449        -0.0939
  46   0.0000       0.051238         1.3942

MULLIKEN ATOMIC CHARGES
-----------------------
   0 C :    0.013814
   1 C :    0.008906
   2 C :    0.038722
   3 C :    0.034367
   4 C :    0.016879
   5 C :    0.012064
   6 H :   -0.020536
   7 H :   -0.021744
   8 H :   -0.020490
   9 H :   -0.019374
  10 H :   -0.021914
  11 H :   -0.020682
  12 C :    0.034431
  13 C :    0.016795
  14 C :    0.012081
  15 C :    0.013795
  16 C :    0.008932
  17 C :    0.038737
  18 H :   -0.019392
  19 H :   -0.021921
  20 H :   -0.020690
  21 H :   -0.020537
  22 H :   -0.021755
  23 H :   -0.020489
Sum of atomic charges:   -0.0000000

LOEWDIN ATOMIC CHARGES
----------------------
   0 C :   -0.029738
   1 C :   -0.026800
   2 C :   -0.018026
   3 C :   -0.017088
   4 C :   -0.024228
   5 C :   -0.030017
   6 H :    0.024167
   7 H :    0.023879
   8 H :    0.024705
   9 H :    0.025190
  10 H :    0.023888
  11 H :    0.024094
  12 C :   -0.017100
  13 C :   -0.024285
  14 C :   -0.030021
  15 C :   -0.029744
  16 C :   -0.026777
  17 C :   -0.018001
  18 H :    0.025175
  19 H :    0.023885
  20 H :    0.024096
  21 H :    0.024164
  22 H :    0.023876
  23 H :    0.024707

  Mayer bond orders larger than 0.100000
B(  0-C ,  1-C ) :   1.3916 B(  0-C ,  5-C ) :   1.3866 B(  0-C ,  6-H ) :   0.9847
B(  1-C ,  2-C ) :   1.3859 B(  1-C ,  7-H ) :   0.9850 B(  2-C ,  3-C ) :   1.4031
B(  2-C ,  8-H ) :   0.9814 B(  3-C ,  4-C ) :   1.3865 B(  3-C ,  9-H ) :   0.9819
B(  4-C ,  5-C ) :   1.3914 B(  4-C , 10-H ) :   0.9847 B(  5-C , 11-H ) :   0.9847
B( 12-C , 13-C ) :   1.3864 B( 12-C , 17-C ) :   1.4032 B( 12-C , 18-H ) :   0.9818
B( 13-C , 14-C ) :   1.3915 B( 13-C , 19-H ) :   0.9847 B( 14-C , 15-C ) :   1.3866
B( 14-C , 20-H ) :   0.9847 B( 15-C , 16-C ) :   1.3916 B( 15-C , 21-H ) :   0.9847
B( 16-C , 17-C ) :   1.3858 B( 16-C , 22-H ) :   0.9850 B( 17-C , 23-H ) :   0.9814

---------------------------------------------------------------------------------------------------------------------
                    SOC CORRECTED ABSORPTION SPECTRUM VIA TRANSITION ELECTRIC DIPOLE MOMENTS*
---------------------------------------------------------------------------------------------------------------------
   State    Energy  Wavelength   fosc         T2              TX                    TY                    TZ
            (cm-1)    (nm)                  (au**2)          (au)                  (au)                  (au)
---------------------------------------------------------------------------------------------------------------------
   0   1   33339.1    299.9   0.000000000   0.00000 (  0.00000,  0.00000) ( -0.00000, -0.00000) (  0.00000,  0.00000)
   0   2   33339.1    299.9   0.000000000   0.00000 (  0.00000, -0.00000) (  0.00000, -0.00000) ( -0.00000,  0.00000)
   0   3   33339.1    299.9   0.000000000   0.00000 (  0.00000,  0.00000) ( -0.00000, -0.00000) ( -0.00000, -0.00000)
   0   4   33375.7    299.6   0.000000000   0.00000 (  0.00000,  0.00000) ( -0.00000, -0.00000) (  0.00000,  0.00000)
   0   5   33375.7    299.6   0.000000000   0.00000 (  0.00000, -0.00000) ( -0.00000,  0.00000) (  0.00000, -0.00000)
   0   6   33375.7    299.6   0.000000000   0.00000 (  0.00000,  0.00000) ( -0.00000, -0.00000) (  0.00000,  0.00000)
   0   7   38296.9    261.1   0.000000000   0.00000 ( -0.00000, -0.00000) (  0.00000,  0.00000) (  0.00000,  0.00000)
   0   8   38296.9    261.1   0.000000000   0.00000 ( -0.00000, -0.00000) ( -0.00000, -0.00000) ( -0.00000, -0.00000)
   0   9   38296.9    261.1   0.000000000   0.00000 ( -0.00000,  0.00000) (  0.00000, -0.00000) (  0.00000, -0.00000)
   0  10   38340.7    260.8   0.000000000   0.00000 ( -0.00000, -0.00000) (  0.00000,  0.00000) ( -0.00000, -0.00000)
   0  11   38340.7    260.8   0.000000000   0.00000 ( -0.00000,  0.00000) ( -0.00000,  0.00000) ( -0.00000,  0.00001)
   0  12   38340.7    260.8   0.000000000   0.00000 (  0.00000, -0.00000) ( -0.00000,  0.00000) ( -0.00000,  0.00000)
   0  13   38424.6    260.3   0.000000000   0.00000 (  0.00000,  0.00000) ( -0.00000, -0.00000) ( -0.00001, -0.00000)
   0  14   38424.6    260.3   0.000000000   0.00000 (  0.00000, -0.00000) ( -0.00000,  0.00000) ( -0.00000,  0.00000)
   0  15   38424.6    260.3   0.000000000   0.00000 (  0.00000,  0.00000) ( -0.00000, -0.00000) ( -0.00001, -0.00001)
   0  16   38425.5    260.2   0.000000000   0.00000 ( -0.00000,  0.00000) ( -0.00000,  0.00000) ( -0.00000,  0.00000)
   0  17   38425.5    260.2   0.000000000   0.00000 ( -0.00000,  0.00000) (  0.00000, -0.00000) (  0.00000, -0.00000)
   0  18   38425.5    260.2   0.000000000   0.00000 (  0.00000, -0.00000) ( -0.00000,  0.00000) ( -0.00000,  0.00000)
   0  19   41386.7    241.6   0.000000000   0.00000 ( -0.00000, -0.00000) (  0.00000,  0.00000) (  0.00000,  0.00000)
   0  20   41386.7    241.6   0.000000000   0.00000 ( -0.00000,  0.00000) ( -0.00000,  0.00000) (  0.00000, -0.00000)
   0  21   41386.7    241.6   0.000000000   0.00000 ( -0.00000, -0.00000) ( -0.00000, -0.00000) (  0.00000,  0.00000)
   0  22   41471.7    241.1   0.000000000   0.00000 (  0.00000,  0.00000) ( -0.00000, -0.00000) (  0.00000,  0.00000)
   0  23   41471.7    241.1   0.000000000   0.00000 ( -0.00000,  0.00000) ( -0.00000,  0.00000) ( -0.00000,  0.00000)
   0  24   41471.7    241.1   0.000000000   0.00000 ( -0.00000, -0.00000) (  0.00000,  0.00000) (  0.00000,  0.00001)
   0  25   43714.7    228.8   0.000000010   0.00000 ( -0.00023, -0.00002) ( -0.00007, -0.00001) ( -0.00013, -0.00001)
   0  26   43862.7    228.0   0.003015032   0.02263 ( -0.01732,  0.00115) (  0.02637, -0.00175) (  0.14675, -0.00976)
   0  27   47811.7    209.2   0.000000000   0.00000 (  0.00000, -0.00000) (  0.00000, -0.00000) ( -0.00000,  0.00001)
   0  28   47811.7    209.2   0.000000000   0.00000 ( -0.00000, -0.00000) (  0.00001,  0.00000) (  0.00005,  0.00001)
   0  29   47811.7    209.2   0.000000001   0.00000 ( -0.00002,  0.00001) (  0.00005, -0.00001) (  0.00004, -0.00001)
   0  30   47835.4    209.1   0.000002993   0.00002 (  0.00092,  0.00040) ( -0.00035, -0.00015) (  0.00405,  0.00174)
   0  31   47949.7    208.6   0.009481732   0.06510 ( -0.10740, -0.13650) (  0.01325,  0.01685) ( -0.11481, -0.14592)
   0  32   47957.1    208.5   0.000000017   0.00000 (  0.00007,  0.00023) ( -0.00001, -0.00004) (  0.00007,  0.00023)
   0  33   47957.1    208.5   0.000000000   0.00000 (  0.00001, -0.00004) ( -0.00000,  0.00001) (  0.00000, -0.00003)
   0  34   47957.1    208.5   0.000001320   0.00001 (  0.00164,  0.00124) ( -0.00024, -0.00018) (  0.00174,  0.00132)
   0  35   48053.1    208.1   0.000000000   0.00000 (  0.00000, -0.00000) ( -0.00000,  0.00000) (  0.00000, -0.00000)
   0  36   48053.1    208.1   0.000000000   0.00000 ( -0.00000,  0.00000) (  0.00000, -0.00000) ( -0.00000,  0.00000)
   0  37   48053.1    208.1   0.000000000   0.00000 ( -0.00000, -0.00000) (  0.00000,  0.00000) ( -0.00000, -0.00000)
   0  38   48145.7    207.7   0.000003008   0.00002 ( -0.00117, -0.00001) (  0.00427,  0.00002) (  0.00097,  0.00000)
   0  39   48186.5    207.5   0.000000000   0.00000 ( -0.00000, -0.00000) (  0.00000,  0.00000) (  0.00000,  0.00000)
   0  40   48186.5    207.5   0.000000000   0.00000 ( -0.00000,  0.00000) (  0.00000, -0.00000) (  0.00000, -0.00000)
   0  41   48186.5    207.5   0.000000002   0.00000 (  0.00001,  0.00001) ( -0.00006, -0.00009) ( -0.00001, -0.00002)
   0  42   48195.7    207.5   0.002377238   0.01624 ( -0.00925,  0.00036) (  0.12369, -0.00487) (  0.02880, -0.00113)
   0  43   48224.1    207.4   0.000006545   0.00004 (  0.00134,  0.00124) ( -0.00468, -0.00435) (  0.00055,  0.00051)
   0  44   48325.8    206.9   0.000679044   0.00463 ( -0.00151, -0.03210) (  0.00106,  0.02262) ( -0.00261, -0.05544)
   0  45   48711.2    205.3   0.000000000   0.00000 ( -0.00000,  0.00000) ( -0.00000,  0.00000) ( -0.00000,  0.00002)
   0  46   48711.2    205.3   0.000000000   0.00000 ( -0.00000,  0.00000) (  0.00001, -0.00001) (  0.00002, -0.00003)
   0  47   48711.3    205.3   0.000000012   0.00000 (  0.00004,  0.00002) ( -0.00003, -0.00001) ( -0.00025, -0.00012)
   0  48   48830.8    204.8   0.000000000   0.00000 ( -0.00000,  0.00001) (  0.00000, -0.00001) (  0.00001, -0.00004)
   0  49   48830.8    204.8   0.000000000   0.00000 (  0.00000, -0.00000) ( -0.00000,  0.00000) ( -0.00000,  0.00000)
   0  50   48830.8    204.8   0.000000000   0.00000 (  0.00000, -0.00000) (  0.00000, -0.00000) ( -0.00000,  0.00000)
   0  51   48854.8    204.7   0.000006682   0.00005 (  0.00231,  0.00031) ( -0.00116, -0.00016) ( -0.00613, -0.00083)
   0  52   48916.1    204.4   0.000000015   0.00000 (  0.00001, -0.00001) ( -0.00002,  0.00003) ( -0.00022,  0.00023)
   0  53   48916.1    204.4   0.000000000   0.00000 ( -0.00000,  0.00001) (  0.00000, -0.00000) ( -0.00000,  0.00000)
   0  54   48916.1    204.4   0.000000000   0.00000 ( -0.00000, -0.00001) ( -0.00001, -0.00002) ( -0.00001, -0.00003)
   0  55   49108.5    203.6   0.000000000   0.00000 ( -0.00000, -0.00000) (  0.00000,  0.00000) (  0.00001,  0.00002)
   0  56   49108.5    203.6   0.000000000   0.00000 (  0.00000, -0.00000) ( -0.00000,  0.00000) ( -0.00000,  0.00001)
   0  57   49108.5    203.6   0.000000000   0.00000 (  0.00000, -0.00000) ( -0.00000,  0.00000) ( -0.00000,  0.00002)
   0  58   49136.4    203.5   0.071629866   0.47992 ( -0.07678, -0.00801) (  0.09139,  0.00953) (  0.67861,  0.07076)
   0  59   52448.9    190.7   0.002959782   0.01858 ( -0.01310,  0.00638) ( -0.00667,  0.00325) ( -0.12167,  0.05923)
   0  60   52479.9    190.5   0.000000020   0.00000 (  0.00001, -0.00004) ( -0.00007,  0.00029) ( -0.00004,  0.00018)
   0  61   56713.5    176.3   0.000000000   0.00000 ( -0.00000, -0.00000) ( -0.00000, -0.00000) (  0.00000,  0.00000)
   0  62   56713.5    176.3   0.000000000   0.00000 (  0.00000,  0.00000) (  0.00000,  0.00000) (  0.00000,  0.00000)
   0  63   56713.5    176.3   0.000000000   0.00000 ( -0.00000, -0.00000) ( -0.00000, -0.00000) (  0.00000,  0.00000)
   0  64   57388.0    174.3   0.000000004   0.00000 ( -0.00001,  0.00006) (  0.00001, -0.00013) (  0.00001, -0.00005)
   0  65   58304.1    171.5   0.000000000   0.00000 ( -0.00000, -0.00000) (  0.00000,  0.00000) ( -0.00000, -0.00000)
   0  66   58304.1    171.5   0.000000000   0.00000 (  0.00000, -0.00000) ( -0.00001,  0.00000) ( -0.00001,  0.00000)
   0  67   58304.1    171.5   0.000000000   0.00000 (  0.00000,  0.00000) (  0.00000,  0.00000) (  0.00000,  0.00000)
   0  68   59135.7    169.1   0.002497306   0.01390 (  0.01366,  0.00618) (  0.00415,  0.00188) ( -0.10647, -0.04818)
   0  69   59146.2    169.1   0.000007552   0.00004 (  0.00058, -0.00030) ( -0.00010,  0.00005) ( -0.00573,  0.00296)
   0  70   60410.7    165.5   0.000045725   0.00025 (  0.00031, -0.01316) ( -0.00012,  0.00495) (  0.00017, -0.00717)
   0  71   60476.0    165.4   0.000000016   0.00000 ( -0.00009,  0.00019) ( -0.00008,  0.00017) ( -0.00004,  0.00007)
   0  72   61606.4    162.3   0.000000678   0.00000 ( -0.00012,  0.00000) ( -0.00005,  0.00000) ( -0.00190,  0.00006)

FINAL SINGLE POINT ENERGY      -464.014039862420

DIPOLE MOMENT
-------------
                                X             Y             Z
Electronic contribution:      0.00003       0.00021       0.00029
Nuclear contribution   :     -0.00001      -0.00015      -0.00018
                        -----------------------------------------
Total Dipole Moment    :      0.00001       0.00006       0.00011
                        -----------------------------------------
Magnitude (a.u.)       :      0.00013
Magnitude (Debye)      :      0.00032

Rotational constants in cm-1:     0.054384     0.022519     0.021201
Rotational constants in MHz :  1630.400814   675.100582   635.582701

                             ****ORCA TERMINATED NORMALLY****
TOTAL RUN TIME: 0 days 0 hours 4 minutes 6 seconds 251 msec
