                         Program Version 5.0.0 -  RELEASE  -
|  1> ! RHF def2-SVP Opt Freq
|  2>
|  3> %pal
|  4>     nprocs 16
|  5> end
|  6>
|  7> *xyz 2 1
|  8>  Fe                 6.20397196    1.03714637    0.17096759
|  9>  O                  8.02343961    0.99562593    0.15635557
| 10>  O                  6.24694430   -0.78162449    0.11972374
| 11>  O                  6.22607513    1.15774049   -1.64489818
| 12>  O                  4.38440248    1.01816527    0.20570458
| 13>  O                  6.16557932    2.85626904    0.21242489
| 14>  O                  6.16850601    1.06001114    1.99047834
| 15>  H                  4.06545864    1.78648828    0.68482314
| 16>  H                  4.08101507    0.21943896    0.64341723
| 17>  H                  6.97846238    3.18466572    0.60354733
| 18>  H                  5.41693185    3.14865831    0.73743487
| 19>  H                  6.90726982    0.55047930    2.33136739
| 20>  H                  5.34491271    0.67543823    2.29934360
| 21>  H                  8.36474659    1.75961228    0.62692374
| 22>  H                  8.32866067    0.19290442    0.58539903
| 23>  H                  7.07410906   -1.09285932    0.49459883
| 24>  H                  5.51267410   -1.13351772    0.62826915
| 25>  H                  6.97521418    0.66593956   -1.98916919
| 26>  H                  5.41263500    0.79176715   -1.99983292
| 27> *
| 28>
| 29>
| 30>                          ****END OF INPUT****
 Total Charge           Charge          ....    2
 Multiplicity           Mult            ....    1
 Number of Electrons    NEL             ....   84
FINAL SINGLE POINT ENERGY     -1717.420000762549
FINAL SINGLE POINT ENERGY     -1717.486031980566
FINAL SINGLE POINT ENERGY     -1717.536387558434
FINAL SINGLE POINT ENERGY     -1717.569685101267
FINAL SINGLE POINT ENERGY     -1717.589527072137
FINAL SINGLE POINT ENERGY     -1717.600302183991
FINAL SINGLE POINT ENERGY     -1717.606319826536
FINAL SINGLE POINT ENERGY     -1717.610194417418
FINAL SINGLE POINT ENERGY     -1717.613048029405
FINAL SINGLE POINT ENERGY     -1717.615403385909
FINAL SINGLE POINT ENERGY     -1717.639201453981
FINAL SINGLE POINT ENERGY     -1717.639219011156
FINAL SINGLE POINT ENERGY     -1717.639233125781
FINAL SINGLE POINT ENERGY     -1717.639243405336
FINAL SINGLE POINT ENERGY     -1717.639252183906
FINAL SINGLE POINT ENERGY     -1717.639259755173
FINAL SINGLE POINT ENERGY     -1717.639266328027
FINAL SINGLE POINT ENERGY     -1717.639269622216
FINAL SINGLE POINT ENERGY     -1717.639271340918
                    ***********************HURRAY********************

CARTESIAN COORDINATES (ANGSTROEM)
---------------------------------
  Fe     6.203970    0.952337    0.361441
  O      8.285168    0.959525    0.454310
  O      6.213283   -1.130400    0.298128
  O      6.298758    1.012410   -1.719009
  O      4.122966    0.945915    0.267140
  O      6.194874    3.035203    0.421725
  O      6.109853    0.889297    2.440346
  H      3.558032    1.711255    0.268244
  H      3.564200    0.177640    0.217761
  H      6.227339    3.619061   -0.328584
  H      6.158252    3.575917    1.203504
  H      6.850281    0.876900    3.037427
  H      5.317530    0.870850    2.966449
  H      8.844130    1.727424    0.507036
  H      8.849503    0.193764    0.459933
  H      6.252705   -1.668633   -0.485220
  H      6.180106   -1.716296    1.046806
  H      7.091536    1.033896   -2.244287
  H      5.558521    1.026284   -2.316272

 Multiplicity           Mult            ....    1
 Number of Electrons    NEL             ....   84
 Basis Dimension        Dim             ....  175

ORBITAL ENERGIES
----------------

  NO   OCC          E(Eh)            E(eV)
   0   2.0000    -261.639170     -7119.5638
   1   2.0000     -32.202126      -876.2644
   2   2.0000     -27.691951      -753.5363
   3   2.0000     -27.691949      -753.5362
   4   2.0000     -27.691945      -753.5361
   5   2.0000     -20.897654      -568.6541
   6   2.0000     -20.897525      -568.6506
   7   2.0000     -20.897507      -568.6501
   8   2.0000     -20.897479      -568.6493
   9   2.0000     -20.897397      -568.6471
  10   2.0000     -20.897379      -568.6466
  11   2.0000      -4.423495      -120.3694
  12   2.0000      -3.005473       -81.7831
  13   2.0000      -3.005466       -81.7829
  14   2.0000      -3.005461       -81.7828
  15   2.0000      -1.681840       -45.7652
  16   2.0000      -1.672388       -45.5080
  17   2.0000      -1.672349       -45.5069
  18   2.0000      -1.672290       -45.5053
  19   2.0000      -1.669781       -45.4371
  20   2.0000      -1.669734       -45.4358
  21   2.0000      -1.064281       -28.9605
  22   2.0000      -1.064185       -28.9579
  23   2.0000      -1.064110       -28.9559
  24   2.0000      -1.062114       -28.9016
  25   2.0000      -1.062050       -28.8998
  26   2.0000      -1.061976       -28.8978
  27   2.0000      -1.002746       -27.2861
  28   2.0000      -0.949716       -25.8431
  29   2.0000      -0.949661       -25.8416
  30   2.0000      -0.949600       -25.8399
  31   2.0000      -0.944901       -25.7121
  32   2.0000      -0.944834       -25.7103
  33   2.0000      -0.879912       -23.9436
  34   2.0000      -0.879817       -23.9410
  35   2.0000      -0.879706       -23.9380
  36   2.0000      -0.852985       -23.2109
  37   2.0000      -0.852968       -23.2104
  38   2.0000      -0.852880       -23.2081
  39   2.0000      -0.811088       -22.0708
  40   2.0000      -0.811056       -22.0700
  41   2.0000      -0.811024       -22.0691
  42   0.0000      -0.183717        -4.9992
  43   0.0000      -0.103160        -2.8071
  44   0.0000      -0.103143        -2.8067
  45   0.0000      -0.103099        -2.8055
  46   0.0000      -0.077039        -2.0964

MULLIKEN ATOMIC CHARGES
-----------------------
   0 Fe:    1.303369
   1 O :   -0.383130
   2 O :   -0.383127
   3 O :   -0.383179
   4 O :   -0.383145
   5 O :   -0.383109
   6 O :   -0.383089
   7 H :    0.249612
   8 H :    0.249658
   9 H :    0.249600
  10 H :    0.249557
  11 H :    0.249647
  12 H :    0.249644
  13 H :    0.249626
  14 H :    0.249587
  15 H :    0.249588
  16 H :    0.249602
  17 H :    0.249619
  18 H :    0.249670
Sum of atomic charges:    2.0000000

LOEWDIN ATOMIC CHARGES
----------------------
   0 Fe:    0.654286
   1 O :   -0.020904
   2 O :   -0.021006
   3 O :   -0.020917
   4 O :   -0.020876
   5 O :   -0.021036
   6 O :   -0.020599
   7 H :    0.122581
   8 H :    0.122619
   9 H :    0.122592
  10 H :    0.122578
  11 H :    0.122636
  12 H :    0.122616
  13 H :    0.122608
  14 H :    0.122565
  15 H :    0.122551
  16 H :    0.122569
  17 H :    0.122541
  18 H :    0.122598

  Mayer bond orders larger than 0.100000
B(  0-Fe,  1-O ) :   0.2182 B(  0-Fe,  2-O ) :   0.2183 B(  0-Fe,  3-O ) :   0.2183
B(  0-Fe,  4-O ) :   0.2183 B(  0-Fe,  5-O ) :   0.2182 B(  0-Fe,  6-O ) :   0.2186
B(  1-O , 13-H ) :   0.9468 B(  1-O , 14-H ) :   0.9468 B(  2-O , 15-H ) :   0.9468
B(  2-O , 16-H ) :   0.9468 B(  3-O , 17-H ) :   0.9468 B(  3-O , 18-H ) :   0.9468
B(  4-O ,  7-H ) :   0.9468 B(  4-O ,  8-H ) :   0.9468 B(  5-O ,  9-H ) :   0.9468
B(  5-O , 10-H ) :   0.9469 B(  6-O , 11-H ) :   0.9468 B(  6-O , 12-H ) :   0.9468

FINAL SINGLE POINT ENERGY     -1717.639272095085

DIPOLE MOMENT
-------------
                                X             Y             Z
Electronic contribution:     -0.00175       0.00206       0.00674
Nuclear contribution   :      0.00320       0.00155       0.00045
                        -----------------------------------------
Total Dipole Moment    :      0.00145       0.00362       0.00719
                        -----------------------------------------
Magnitude (a.u.)       :      0.00818
Magnitude (Debye)      :      0.02080

VIBRATIONAL FREQUENCIES
-----------------------

Scaling factor for frequencies =  1.000000000  (already applied!)

   0:         0.00 cm**-1
   1:         0.00 cm**-1
   2:         0.00 cm**-1
   3:         0.00 cm**-1
   4:         0.00 cm**-1
   5:         0.00 cm**-1
   6:       135.19 cm**-1
   7:       135.24 cm**-1
   8:       135.29 cm**-1
   9:       135.66 cm**-1
  10:       135.68 cm**-1
  11:       135.82 cm**-1
  12:       180.75 cm**-1
  13:       180.81 cm**-1
  14:       180.85 cm**-1
  15:       211.51 cm**-1
  16:       211.72 cm**-1
  17:       272.36 cm**-1
  18:       272.40 cm**-1
  19:       272.81 cm**-1
  20:       304.80 cm**-1
  21:       305.31 cm**-1
  22:       352.96 cm**-1
  23:       377.23 cm**-1
  24:       377.89 cm**-1
  25:       378.32 cm**-1
  26:       393.16 cm**-1
  27:       393.69 cm**-1
  28:       394.11 cm**-1
  29:       410.83 cm**-1
  30:       423.11 cm**-1
  31:       423.76 cm**-1
  32:       423.81 cm**-1
  33:       598.51 cm**-1
  34:       598.65 cm**-1
  35:       598.94 cm**-1
  36:       632.76 cm**-1
  37:       633.02 cm**-1
  38:       633.16 cm**-1
  39:      1764.55 cm**-1
  40:      1764.76 cm**-1
  41:      1764.79 cm**-1
  42:      1766.29 cm**-1
  43:      1766.38 cm**-1
  44:      1771.27 cm**-1
  45:      4074.32 cm**-1
  46:      4074.34 cm**-1
  47:      4076.05 cm**-1
  48:      4076.08 cm**-1
  49:      4076.08 cm**-1
  50:      4088.28 cm**-1
  51:      4158.29 cm**-1
  52:      4158.29 cm**-1
  53:      4158.39 cm**-1
  54:      4159.17 cm**-1
  55:      4159.20 cm**-1
  56:      4159.35 cm**-1

IR SPECTRUM
-----------

 Mode   freq       eps      Int      T**2         TX        TY        TZ
       cm**-1   L/(mol*cm) km/mol    a.u.
----------------------------------------------------------------------------
  6:    135.19   0.000037    0.19  0.000085  ( 0.008057  0.002361 -0.003814)
  7:    135.24   0.000044    0.22  0.000103  (-0.003279  0.005756 -0.007667)
  8:    135.29   0.000044    0.22  0.000101  ( 0.003335  0.005882 -0.007413)
  9:    135.66   0.001581    7.99  0.003636  (-0.005329 -0.051726 -0.030537)
 10:    135.68   0.001526    7.71  0.003510  ( 0.054784  0.006786 -0.021502)
 11:    135.82   0.001513    7.65  0.003477  ( 0.022788 -0.029014  0.045997)
 12:    180.75   0.000004    0.02  0.000008  ( 0.001579 -0.002238  0.000502)
 13:    180.81   0.000004    0.02  0.000008  (-0.002020 -0.001177  0.001469)
 14:    180.85   0.000004    0.02  0.000007  (-0.000591 -0.001327 -0.002263)
 15:    211.51   0.000000    0.00  0.000000  (-0.000159  0.000100 -0.000131)
 16:    211.72   0.000001    0.00  0.000001  (-0.000288  0.000890  0.000085)
 17:    272.36   0.000001    0.01  0.000001  (-0.000605 -0.000475  0.000780)
 18:    272.40   0.000000    0.00  0.000000  (-0.000676 -0.000117 -0.000117)
 19:    272.81   0.000000    0.00  0.000000  ( 0.000088  0.000086  0.000068)
 20:    304.80   0.000000    0.00  0.000000  ( 0.000105 -0.000007 -0.000290)
 21:    305.31   0.000000    0.00  0.000000  ( 0.000018  0.000248 -0.000028)
 22:    352.96   0.000002    0.01  0.000002  ( 0.000144 -0.000222 -0.001252)
 23:    377.23   0.019323   97.65  0.015985  (-0.000674  0.126408  0.002301)
 24:    377.89   0.019204   97.05  0.015858  ( 0.125927  0.000704  0.000602)
 25:    378.32   0.019707   99.59  0.016256  ( 0.001423  0.002497 -0.127466)
 26:    393.16   0.000001    0.01  0.000001  ( 0.000357 -0.000702  0.000658)
 27:    393.69   0.000001    0.01  0.000001  ( 0.000084 -0.000265  0.000942)
 28:    394.11   0.000001    0.01  0.000001  (-0.000924  0.000244 -0.000362)
 29:    410.83   0.000071    0.36  0.000054  ( 0.003178  0.005318  0.003918)
 30:    423.11   0.091883  464.34  0.067768  ( 0.018567  0.253946  0.054175)
 31:    423.76   0.092069  465.28  0.067801  (-0.222285 -0.012798  0.135007)
 32:    423.81   0.091855  464.20  0.067636  (-0.134644  0.057126 -0.215043)
 33:    598.51   0.000002    0.01  0.000001  (-0.000858  0.000658  0.000086)
 34:    598.65   0.000001    0.00  0.000000  (-0.000480 -0.000387  0.000122)
 35:    598.94   0.000006    0.03  0.000003  (-0.001659  0.000504 -0.000386)
 36:    632.76   0.068146  344.38  0.033608  ( 0.020831 -0.102166  0.150787)
 37:    633.02   0.068199  344.65  0.033621  ( 0.013400 -0.150405 -0.104018)
 38:    633.16   0.068119  344.25  0.033574  ( 0.181536  0.022997 -0.009451)
 39:   1764.55   0.053879  272.28  0.009529  ( 0.001323 -0.006524  0.097387)
 40:   1764.76   0.055274  279.33  0.009774  ( 0.098857  0.000812 -0.000953)
 41:   1764.79   0.054765  276.76  0.009684  (-0.000781  0.098131  0.007313)
 42:   1766.29   0.001401    7.08  0.000248  (-0.001748 -0.003692  0.015194)
 43:   1766.38   0.000537    2.72  0.000095  (-0.001042  0.009223 -0.002962)
 44:   1771.27   0.000055    0.28  0.000010  ( 0.000130  0.001560  0.002682)
 45:   4074.32   0.000027    0.14  0.000002  ( 0.001411  0.000117  0.000302)
 46:   4074.34   0.000003    0.02  0.000000  ( 0.000098  0.000026 -0.000499)
 47:   4076.05   0.072437  366.07  0.005546  ( 0.073674 -0.004104 -0.010053)
 48:   4076.08   0.072491  366.34  0.005550  ( 0.006149 -0.041328  0.061677)
 49:   4076.08   0.072404  365.90  0.005543  (-0.008953 -0.061819 -0.040515)
 50:   4088.28   0.000001    0.00  0.000000  (-0.000171 -0.000052 -0.000101)
 51:   4158.29   0.000359    1.82  0.000027  (-0.001573 -0.002526  0.004256)
 52:   4158.29   0.000957    4.84  0.000072  (-0.000425  0.000234  0.008463)
 53:   4158.39   0.003668   18.54  0.000275  (-0.016545 -0.000298 -0.001210)
 54:   4159.17   0.109816  554.97  0.008240  ( 0.002441 -0.089299  0.016104)
 55:   4159.20   0.109069  551.19  0.008183  ( 0.003758 -0.016424 -0.088879)
 56:   4159.35   0.106494  538.18  0.007990  (-0.089267 -0.003253 -0.003280)

--------------------------
THERMOCHEMISTRY AT 298.15K
--------------------------

Temperature         ... 298.15 K
Pressure            ... 1.00 atm
Total Mass          ... 163.94 AMU

Throughout the following assumptions are being made:
  (1) The electronic state is orbitally nondegenerate
  (2) There are no thermally accessible electronically excited states
  (3) Hindered rotations indicated by low frequency modes are not
      treated as such but are treated as vibrations and this may
      cause some error
  (4) All equations used are the standard statistical mechanics
      equations for an ideal gas
  (5) All vibrations are strictly harmonic

freq.     135.19  E(vib)   ...       0.42
freq.     135.24  E(vib)   ...       0.42
freq.     135.29  E(vib)   ...       0.42
freq.     135.66  E(vib)   ...       0.42
freq.     135.68  E(vib)   ...       0.42
freq.     135.82  E(vib)   ...       0.42
freq.     180.75  E(vib)   ...       0.37
freq.     180.81  E(vib)   ...       0.37
freq.     180.85  E(vib)   ...       0.37
freq.     211.51  E(vib)   ...       0.34
freq.     211.72  E(vib)   ...       0.34
freq.     272.36  E(vib)   ...       0.29
freq.     272.40  E(vib)   ...       0.29
freq.     272.81  E(vib)   ...       0.29
freq.     304.80  E(vib)   ...       0.26
freq.     305.31  E(vib)   ...       0.26
freq.     352.96  E(vib)   ...       0.22
freq.     377.23  E(vib)   ...       0.21
freq.     377.89  E(vib)   ...       0.21
freq.     378.32  E(vib)   ...       0.21
freq.     393.16  E(vib)   ...       0.20
freq.     393.69  E(vib)   ...       0.20
freq.     394.11  E(vib)   ...       0.20
freq.     410.83  E(vib)   ...       0.19
freq.     423.11  E(vib)   ...       0.18
freq.     423.76  E(vib)   ...       0.18
freq.     423.81  E(vib)   ...       0.18
freq.     598.51  E(vib)   ...       0.10
freq.     598.65  E(vib)   ...       0.10
freq.     598.94  E(vib)   ...       0.10
freq.     632.76  E(vib)   ...       0.09
freq.     633.02  E(vib)   ...       0.09
freq.     633.16  E(vib)   ...       0.09
freq.    1764.55  E(vib)   ...       0.00
freq.    1764.76  E(vib)   ...       0.00
freq.    1764.79  E(vib)   ...       0.00
freq.    1766.29  E(vib)   ...       0.00
freq.    1766.38  E(vib)   ...       0.00
freq.    1771.27  E(vib)   ...       0.00
freq.    4074.32  E(vib)   ...       0.00
freq.    4074.34  E(vib)   ...       0.00
freq.    4076.05  E(vib)   ...       0.00
freq.    4076.08  E(vib)   ...       0.00
freq.    4076.08  E(vib)   ...       0.00
freq.    4088.28  E(vib)   ...       0.00
freq.    4158.29  E(vib)   ...       0.00
freq.    4158.29  E(vib)   ...       0.00
freq.    4158.39  E(vib)   ...       0.00
freq.    4159.17  E(vib)   ...       0.00
freq.    4159.20  E(vib)   ...       0.00
freq.    4159.35  E(vib)   ...       0.00

------------
INNER ENERGY
------------

The inner energy is: U= E(el) + E(ZPE) + E(vib) + E(rot) + E(trans)
    E(el)   - is the total energy from the electronic structure calculation
              = E(kin-el) + E(nuc-el) + E(el-el) + E(nuc-nuc)
    E(ZPE)  - the the zero temperature vibrational energy from the frequency calculation
    E(vib)  - the the finite temperature correction to E(ZPE) due to population
              of excited vibrational states
    E(rot)  - is the rotational thermal energy
    E(trans)- is the translational thermal energy

Summary of contributions to the inner energy U:
Electronic energy                ...  -1717.63927210 Eh
Zero point energy                ...      0.16235585 Eh     101.88 kcal/mol
Thermal vibrational correction   ...      0.01344827 Eh       8.44 kcal/mol
Thermal rotational correction    ...      0.00141627 Eh       0.89 kcal/mol
Thermal translational correction ...      0.00141627 Eh       0.89 kcal/mol
-----------------------------------------------------------------------
Total thermal energy                  -1717.46063543 Eh

Summary of corrections to the electronic energy:
(perhaps to be used in another calculation)
Total thermal correction                  0.01628082 Eh      10.22 kcal/mol
Non-thermal (ZPE) correction              0.16235585 Eh     101.88 kcal/mol
-----------------------------------------------------------------------
Total correction                          0.17863666 Eh     112.10 kcal/mol

--------
ENTHALPY
--------

The enthalpy is H = U + kB*T
                kB is Boltzmann's constant
Total free energy                 ...  -1717.46063543 Eh
Thermal Enthalpy correction       ...      0.00094421 Eh       0.59 kcal/mol
-----------------------------------------------------------------------
Total Enthalpy                    ...  -1717.45969122 Eh

Note: Only C1 symmetry has been detected, increase convergence thresholds
      if your molecule has a higher symmetry. Symmetry factor of 1.0 is
      used for the rotational entropy correction.

Note: Rotational entropy computed according to Herzberg
Infrared and Raman Spectra, Chapter V,1, Van Nostrand Reinhold, 1945
Point Group:  C1, Symmetry Number:   1
Rotational constants in cm-1:     0.049753     0.049747     0.049718

Vibrational entropy computed according to the QRRHO of S. Grimme
Chem.Eur.J. 2012 18 9955

-------
ENTROPY
-------

The entropy contributions are T*S = T*(S(el)+S(vib)+S(rot)+S(trans))
     S(el)   - electronic entropy
     S(vib)  - vibrational entropy
     S(rot)  - rotational entropy
     S(trans)- translational entropy
The entropies will be listed as multiplied by the temperature to get
units of energy

Electronic entropy                ...      0.00000000 Eh      0.00 kcal/mol
Vibrational entropy               ...      0.02315720 Eh     14.53 kcal/mol
Rotational entropy                ...      0.01376099 Eh      8.64 kcal/mol
Translational entropy             ...      0.01957135 Eh     12.28 kcal/mol
-----------------------------------------------------------------------
Final entropy term                ...      0.05648953 Eh     35.45 kcal/mol

In case the symmetry of your molecule has not been determined correctly
or in case you have a reason to use a different symmetry number we print
out the resulting rotational entropy values for sn=1,12 :
 --------------------------------------------------------
|  sn= 1 | S(rot)=       0.01376099 Eh      8.64 kcal/mol|
|  sn= 2 | S(rot)=       0.01310653 Eh      8.22 kcal/mol|
|  sn= 3 | S(rot)=       0.01272370 Eh      7.98 kcal/mol|
|  sn= 4 | S(rot)=       0.01245207 Eh      7.81 kcal/mol|
|  sn= 5 | S(rot)=       0.01224139 Eh      7.68 kcal/mol|
|  sn= 6 | S(rot)=       0.01206924 Eh      7.57 kcal/mol|
|  sn= 7 | S(rot)=       0.01192369 Eh      7.48 kcal/mol|
|  sn= 8 | S(rot)=       0.01179762 Eh      7.40 kcal/mol|
|  sn= 9 | S(rot)=       0.01168641 Eh      7.33 kcal/mol|
|  sn=10 | S(rot)=       0.01158693 Eh      7.27 kcal/mol|
|  sn=11 | S(rot)=       0.01149694 Eh      7.21 kcal/mol|
|  sn=12 | S(rot)=       0.01141478 Eh      7.16 kcal/mol|

                             ****ORCA TERMINATED NORMALLY****
TOTAL RUN TIME: 0 days 0 hours 8 minutes 46 seconds 570 msec
