                         Program Version 5.0.0 -  RELEASE  -
|  1> ! ROHF def2-SVP pal8
|  2>
|  3> *xyz 0 3
|  4>   C     -3.693788    1.345950   -0.080153
|  5>   C     -2.193484    1.373788   -0.056812
|  6>   H     -4.225508    1.180088   -1.010334
|  7>   H     -4.255204    1.224048    0.839301
|  8>   C     -1.554416   -0.023401   -0.016100
|  9>   H     -1.824927    1.905707   -0.939850
| 10>   H     -1.852812    1.944021    0.813355
| 11>   C     -0.027056    0.014500    0.007320
| 12>   H     -1.919913   -0.559214    0.866609
| 13>   H     -1.893486   -0.598246   -0.884715
| 14>   H      0.334747    0.551752   -0.877315
| 15>   H      0.305045    0.594496    0.874340
| 16>   C      0.609304   -1.374514    0.044919
| 17>   H      0.262703   -1.951369   -0.819054
| 18>   H      0.259278   -1.912060    0.933203
| 19>   C      2.147820   -1.364759    0.037560
| 20>   H      2.493149   -2.399801   -0.057561
| 21>   H      2.498336   -0.839762   -0.856087
| 22>   C      2.771544   -0.752033    1.258758
| 23>   H      3.140055    0.266294    1.257206
| 24>   H      2.687753   -1.251260    2.218099
| 25> *
| 26>
| 27>
| 28>                          ****END OF INPUT****

CARTESIAN COORDINATES (ANGSTROEM)
---------------------------------
  C     -3.693788    1.345950   -0.080153
  C     -2.193484    1.373788   -0.056812
  H     -4.225508    1.180088   -1.010334
  H     -4.255204    1.224048    0.839301
  C     -1.554416   -0.023401   -0.016100
  H     -1.824927    1.905707   -0.939850
  H     -1.852812    1.944021    0.813355
  C     -0.027056    0.014500    0.007320
  H     -1.919913   -0.559214    0.866609
  H     -1.893486   -0.598246   -0.884715
  H      0.334747    0.551752   -0.877315
  H      0.305045    0.594496    0.874340
  C      0.609304   -1.374514    0.044919
  H      0.262703   -1.951369   -0.819054
  H      0.259278   -1.912060    0.933203
  C      2.147820   -1.364759    0.037560
  H      2.493149   -2.399801   -0.057561
  H      2.498336   -0.839762   -0.856087
  C      2.771544   -0.752033    1.258758
  H      3.140055    0.266294    1.257206
  H      2.687753   -1.251260    2.218099

 Total Charge           Charge          ....    0
 Multiplicity           Mult            ....    3
 Number of Electrons    NEL             ....   56
 Basis Dimension        Dim             ....  168

ORBITAL ENERGIES
----------------

  NO   OCC          E(Eh)            E(eV)
   0   2.0000     -11.225566      -305.4632
   1   2.0000     -11.224481      -305.4337
   2   2.0000     -11.220904      -305.3363
   3   2.0000     -11.220785      -305.3331
   4   2.0000     -11.220622      -305.3286
   5   2.0000     -11.220001      -305.3117
   6   2.0000     -11.217696      -305.2490
   7   2.0000      -1.080431       -29.4000
   8   2.0000      -1.036717       -28.2105
   9   2.0000      -0.966276       -26.2937
  10   2.0000      -0.883692       -24.0465
  11   2.0000      -0.817402       -22.2427
  12   2.0000      -0.777184       -21.1483
  13   2.0000      -0.763146       -20.7663
  14   2.0000      -0.653693       -17.7879
  15   2.0000      -0.625192       -17.0123
  16   2.0000      -0.605202       -16.4684
  17   2.0000      -0.577599       -15.7173
  18   2.0000      -0.561371       -15.2757
  19   2.0000      -0.553244       -15.0545
  20   2.0000      -0.530883       -14.4461
  21   2.0000      -0.508954       -13.8493
  22   2.0000      -0.492502       -13.4017
  23   2.0000      -0.473397       -12.8818
  24   2.0000      -0.463647       -12.6165
  25   2.0000      -0.461307       -12.5528
  26   2.0000      -0.458410       -12.4740
  27   1.0000      -0.359433        -9.7807
  28   1.0000      -0.355726        -9.6798
  29   0.0000       0.177688         4.8351
  30   0.0000       0.192668         5.2428
  31   0.0000       0.204711         5.5705
  32   0.0000       0.206430         5.6173
  33   0.0000       0.224902         6.1199

MULLIKEN ATOMIC CHARGES AND SPIN POPULATIONS
--------------------------------------------
   0 C :   -0.107498    0.963526
   1 C :   -0.045614    0.001079
   2 H :    0.055516    0.005518
   3 H :    0.055610    0.005519
   4 C :   -0.063089    0.008725
   5 H :    0.031050    0.003683
   6 H :    0.031297    0.003658
   7 C :   -0.060221    0.005185
   8 H :    0.022406    0.002033
   9 H :    0.021914    0.002085
  10 H :    0.018349    0.000398
  11 H :    0.025492    0.002520
  12 C :   -0.052867    0.009203
  13 H :    0.024055    0.002766
  14 H :    0.021745    0.001261
  15 C :   -0.031217    0.001048
  16 H :    0.037831    0.008516
  17 H :    0.029895    0.000942
  18 C :   -0.129122    0.961405
  19 H :    0.060134    0.005612
  20 H :    0.054336    0.005318
Sum of atomic charges         :   -0.0000000

LOEWDIN ATOMIC CHARGES AND SPIN POPULATIONS
-------------------------------------------
   0 C :   -0.006850    0.893037
   1 C :   -0.039302    0.020723
   2 H :    0.006519    0.021073
   3 H :    0.006563    0.021076
   4 C :   -0.019430    0.026347
   5 H :    0.016206    0.005354
   6 H :    0.016279    0.005303
   7 C :   -0.023173    0.005045
   8 H :    0.010206    0.001609
   9 H :    0.009775    0.001779
  10 H :    0.009707    0.000256
  11 H :    0.010126    0.002886
  12 C :   -0.018496    0.024134
  13 H :    0.011090    0.002220
  14 H :    0.009911    0.001323
  15 C :   -0.038363    0.020524
  16 H :    0.019243    0.011958
  17 H :    0.015897    0.001503
  18 C :   -0.009334    0.891705
  19 H :    0.007203    0.021432
  20 H :    0.006222    0.020713

  Mayer bond orders larger than 0.100000
B(  0-C ,  1-C ) :   1.0333 B(  0-C ,  2-H ) :   0.9891 B(  0-C ,  3-H ) :   0.9891
B(  1-C ,  4-C ) :   1.0217 B(  1-C ,  5-H ) :   0.9741 B(  1-C ,  6-H ) :   0.9740
B(  4-C ,  7-C ) :   1.0303 B(  4-C ,  8-H ) :   0.9715 B(  4-C ,  9-H ) :   0.9719
B(  7-C , 10-H ) :   0.9706 B(  7-C , 11-H ) :   0.9702 B(  7-C , 12-C ) :   1.0160
B( 12-C , 13-H ) :   0.9737 B( 12-C , 14-H ) :   0.9714 B( 12-C , 15-C ) :   1.0429
B( 15-C , 16-H ) :   0.9779 B( 15-C , 17-H ) :   0.9746 B( 15-C , 18-C ) :   1.0155
B( 18-C , 19-H ) :   0.9900 B( 18-C , 20-H ) :   0.9887

FINAL SINGLE POINT ENERGY      -272.936270096226

DIPOLE MOMENT
-------------
                                X             Y             Z
Electronic contribution:      0.08351       0.14071       0.00132
Nuclear contribution   :     -0.08888      -0.22844      -0.02714
                        -----------------------------------------
Total Dipole Moment    :     -0.00536      -0.08773      -0.02583
                        -----------------------------------------
Magnitude (a.u.)       :      0.09161
Magnitude (Debye)      :      0.23286

Rotational constants in cm-1:     0.281333     0.028707     0.027530
Rotational constants in MHz :  8434.155340   860.619249   825.340837

                             ****ORCA TERMINATED NORMALLY****
TOTAL RUN TIME: 0 days 0 hours 0 minutes 5 seconds 473 msec
