                         Program Version 5.0.0 -  RELEASE  -
|  1> ! def2-SVP pal8
|  2> ! moread
|  3>
|  4> %moinp "C7H14-ROHF.gbw"
|  5>
|  6> %casscf
|  7> 	mult	        1
|  8> 	nel	            2
|  9> 	norb	        2
| 10> 	Nroots	        3
| 11> end
| 12>
| 13> *xyz 0 1
| 14>   C     -3.693788    1.345950   -0.080153
| 15>   C     -2.193484    1.373788   -0.056812
| 16>   H     -4.225508    1.180088   -1.010334
| 17>   H     -4.255204    1.224048    0.839301
| 18>   C     -1.554416   -0.023401   -0.016100
| 19>   H     -1.824927    1.905707   -0.939850
| 20>   H     -1.852812    1.944021    0.813355
| 21>   C     -0.027056    0.014500    0.007320
| 22>   H     -1.919913   -0.559214    0.866609
| 23>   H     -1.893486   -0.598246   -0.884715
| 24>   H      0.334747    0.551752   -0.877315
| 25>   H      0.305045    0.594496    0.874340
| 26>   C      0.609304   -1.374514    0.044919
| 27>   H      0.262703   -1.951369   -0.819054
| 28>   H      0.259278   -1.912060    0.933203
| 29>   C      2.147820   -1.364759    0.037560
| 30>   H      2.493149   -2.399801   -0.057561
| 31>   H      2.498336   -0.839762   -0.856087
| 32>   C      2.771544   -0.752033    1.258758
| 33>   H      3.140055    0.266294    1.257206
| 34>   H      2.687753   -1.251260    2.218099
| 35> *
| 36>
| 37>
| 38>                          ****END OF INPUT****

CARTESIAN COORDINATES (ANGSTROEM)
---------------------------------
  C     -3.693788    1.345950   -0.080153
  C     -2.193484    1.373788   -0.056812
  H     -4.225508    1.180088   -1.010334
  H     -4.255204    1.224048    0.839301
  C     -1.554416   -0.023401   -0.016100
  H     -1.824927    1.905707   -0.939850
  H     -1.852812    1.944021    0.813355
  C     -0.027056    0.014500    0.007320
  H     -1.919913   -0.559214    0.866609
  H     -1.893486   -0.598246   -0.884715
  H      0.334747    0.551752   -0.877315
  H      0.305045    0.594496    0.874340
  C      0.609304   -1.374514    0.044919
  H      0.262703   -1.951369   -0.819054
  H      0.259278   -1.912060    0.933203
  C      2.147820   -1.364759    0.037560
  H      2.493149   -2.399801   -0.057561
  H      2.498336   -0.839762   -0.856087
  C      2.771544   -0.752033    1.258758
  H      3.140055    0.266294    1.257206
  H      2.687753   -1.251260    2.218099

 Total Charge           Charge          ....    0
 Multiplicity           Mult            ....    1
 Number of Electrons    NEL             ....   56
 Basis Dimension        Dim             ....  168

ORBITAL ENERGIES
----------------

  NO   OCC          E(Eh)            E(eV)
   0   2.0000     -11.262898      -306.4790
   1   2.0000     -11.254970      -306.2633
   2   2.0000     -11.237745      -305.7946
   3   2.0000     -11.233308      -305.6739
   4   2.0000     -11.229823      -305.5790
   5   2.0000     -11.227020      -305.5027
   6   2.0000     -11.220770      -305.3327
   7   2.0000      -1.086629       -29.5687
   8   2.0000      -1.044982       -28.4354
   9   2.0000      -0.974588       -26.5199
  10   2.0000      -0.893475       -24.3127
  11   2.0000      -0.825339       -22.4586
  12   2.0000      -0.781726       -21.2719
  13   2.0000      -0.770522       -20.9670
  14   2.0000      -0.658623       -17.9220
  15   2.0000      -0.634491       -17.2654
  16   2.0000      -0.612750       -16.6738
  17   2.0000      -0.584786       -15.9128
  18   2.0000      -0.567724       -15.4486
  19   2.0000      -0.561327       -15.2745
  20   2.0000      -0.539321       -14.6757
  21   2.0000      -0.516759       -14.0617
  22   2.0000      -0.498177       -13.5561
  23   2.0000      -0.479435       -13.0461
  24   2.0000      -0.467793       -12.7293
  25   2.0000      -0.464420       -12.6375
  26   2.0000      -0.462117       -12.5748
  27   1.0000      -0.097777        -2.6607
  28   1.0000      -0.098166        -2.6712
  29   0.0000       0.176915         4.8141
  30   0.0000       0.191921         5.2224
  31   0.0000       0.202827         5.5192
  32   0.0000       0.205978         5.6049
  33   0.0000       0.227147         6.1810

MULLIKEN ATOMIC CHARGES
-----------------------
   0 C :   -0.173612
   1 C :   -0.048942
   2 H :    0.072147
   3 H :    0.072311
   4 C :   -0.036728
   5 H :    0.038381
   6 H :    0.039115
   7 C :   -0.052410
   8 H :    0.017144
   9 H :    0.017668
  10 H :    0.015982
  11 H :    0.001839
  12 C :   -0.024257
  13 H :    0.017054
  14 H :    0.021209
  15 C :   -0.037065
  16 H :    0.050171
  17 H :    0.037326
  18 C :   -0.182565
  19 H :    0.081274
  20 H :    0.073960
Sum of atomic charges:    0.0000000

LOEWDIN ATOMIC CHARGES
----------------------
   0 C :   -0.048183
   1 C :   -0.033067
   2 H :    0.014792
   3 H :    0.014828
   4 C :   -0.014931
   5 H :    0.021050
   6 H :    0.021250
   7 C :   -0.022532
   8 H :    0.009139
   9 H :    0.009011
  10 H :    0.008826
  11 H :    0.000763
  12 C :   -0.011694
  13 H :    0.008969
  14 H :    0.010273
  15 C :   -0.032701
  16 H :    0.027063
  17 H :    0.020505
  18 C :   -0.036980
  19 H :    0.017400
  20 H :    0.016219

  Mayer bond orders larger than 0.100000
B(  0-C ,  1-C ) :   1.1363 B(  0-C ,  2-H ) :   0.9814 B(  0-C ,  3-H ) :   0.9815
B(  1-C ,  4-C ) :   0.9546 B(  1-C ,  5-H ) :   0.9625 B(  1-C ,  6-H ) :   0.9616
B(  4-C ,  7-C ) :   0.9916 B(  4-C ,  8-H ) :   0.9683 B(  4-C ,  9-H ) :   0.9680
B(  7-C , 10-H ) :   0.9681 B(  7-C , 11-H ) :   0.9531 B(  7-C , 12-C ) :   1.0122
B( 12-C , 13-H ) :   0.9554 B( 12-C , 14-H ) :   0.9693 B( 12-C , 15-C ) :   0.9836
B( 15-C , 16-H ) :   0.9555 B( 15-C , 17-H ) :   0.9711 B( 15-C , 18-C ) :   1.1018
B( 18-C , 19-H ) :   0.9816 B( 18-C , 20-H ) :   0.9808

FINAL SINGLE POINT ENERGY      -272.673755449678

DIPOLE MOMENT
-------------
                                X             Y             Z
Electronic contribution:      0.20893       0.03624      -0.01108
Nuclear contribution   :     -0.08888      -0.22844      -0.02714
                        -----------------------------------------
Total Dipole Moment    :      0.12005      -0.19220      -0.03822
                        -----------------------------------------
Magnitude (a.u.)       :      0.22982
Magnitude (Debye)      :      0.58415

Rotational constants in cm-1:     0.281333     0.028707     0.027530
Rotational constants in MHz :  8434.155340   860.619249   825.340837

                             ****ORCA TERMINATED NORMALLY****
TOTAL RUN TIME: 0 days 0 hours 0 minutes 18 seconds 309 msec
