 Gaussian 16, Revision A.03,
 Gaussian 16:  ES64L-G16RevA.03 25-Dec-2016

 ---------------------------------
 #p B3LYP/cc-pVTZ guess=mix stable
 ---------------------------------

 ------------
 [Fe(H2O)6]2+
 ------------
 Symbolic Z-matrix:
 Charge =  2 Multiplicity = 1

                         Standard orientation:
 ---------------------------------------------------------------------
 Center     Atomic      Atomic             Coordinates (Angstroms)
 Number     Number       Type             X           Y           Z
 ---------------------------------------------------------------------
      1         26           0        0.000065    0.000163   -0.000017
      2          8           0       -1.246719   -1.256779    0.948755
      3          1           0       -1.906773   -1.728539    0.406440
      4          8           0        1.248166    0.192856    1.561816
      5          1           0        0.978517    0.504619    2.444641
      6          8           0       -1.248574   -0.193244   -1.561244
      7          1           0       -0.979714   -0.505995   -2.443958
      8          8           0        1.247144    1.256732   -0.948912
      9          1           0        1.906411    1.729332   -0.406365
     10          8           0       -1.247341    1.449656    0.614407
     11          1           0       -1.905699    1.215874    1.295786
     12          8           0        1.247217   -1.449530   -0.614705
     13          1           0        1.906902   -1.215343   -1.294651
     14          1           0       -0.977458    2.370268    0.784533
     15          1           0        1.907641   -0.513331    1.698765
     16          1           0        0.977196   -2.369840   -0.786194
     17          1           0       -0.975734   -1.865439    1.659658
     18          1           0       -1.908858    0.512144   -1.698350
     19          1           0        0.976718    1.864477   -1.660803
 ---------------------------------------------------------------------

 SCF Done:  E(RB3LYP) =  -1722.07425873     A.U. after   18 cycles

 The electronic state is 1-A.
 Alpha  occ. eigenvalues -- -256.35350 -30.29436 -26.15591 -26.15451 -26.15450
 Alpha  occ. eigenvalues --  -19.48872 -19.48871 -19.48871 -19.48871 -19.48870
 Alpha  occ. eigenvalues --  -19.48869  -3.72913  -2.50309  -2.49982  -2.49982
 Alpha  occ. eigenvalues --   -1.37392  -1.36503  -1.36165  -1.36164  -1.35995
 Alpha  occ. eigenvalues --   -1.35994  -0.88952  -0.88591  -0.88115  -0.88113
 Alpha  occ. eigenvalues --   -0.87987  -0.87985  -0.81978  -0.77860  -0.77746
 Alpha  occ. eigenvalues --   -0.77744  -0.76605  -0.76603  -0.68808  -0.68806
 Alpha  occ. eigenvalues --   -0.68121  -0.68120  -0.67998  -0.66521  -0.54657
 Alpha  occ. eigenvalues --   -0.54180  -0.54179
 Alpha virt. eigenvalues --   -0.33943  -0.33941  -0.32086  -0.27738  -0.27737
 Alpha virt. eigenvalues --   -0.26831  -0.22613  -0.22612  -0.19469  -0.19075
 Alpha virt. eigenvalues --   -0.19075  -0.18842  -0.18220  -0.18219  -0.09465

 Mulliken charges:
               1
     1  Fe   0.689871
     2  O   -0.359269
     3  H    0.291327
     4  O   -0.359274
     5  H    0.286311
     6  O   -0.359387
     7  H    0.286335
     8  O   -0.359348
     9  H    0.291371
    10  O   -0.359290
    11  H    0.291361
    12  O   -0.359359
    13  H    0.291377
    14  H    0.286304
    15  H    0.291337
    16  H    0.286311
    17  H    0.286296
    18  H    0.291395
    19  H    0.286330
 Sum of Mulliken charges =   2.00000

 Dipole moment (field-independent basis, Debye):
    X=             -0.0011    Y=             -0.0014    Z=             -0.0016  Tot=              0.0024
 Quadrupole moment (field-independent basis, Debye-Ang):
   XX=            -22.6654   YY=            -15.8372   ZZ=            -15.8461
   XY=             -0.0015   XZ=              0.0113   YZ=              0.0054

 Normal termination of Gaussian 16 at Sat May 14 11:18:15 2022.
