 Gaussian 16, Revision A.03,
 Gaussian 16:  ES64L-G16RevA.03 25-Dec-2016

 ------------------
 #p RHF/6-31G(d)-5d
 ------------------

 -------------------
 Propene SP 6-31G(d)
 -------------------
 Symbolic Z-matrix:
 Charge =  0 Multiplicity = 1

                         Standard orientation:
 ---------------------------------------------------------------------
 Center     Atomic      Atomic             Coordinates (Angstroms)
 Number     Number       Type             X           Y           Z
 ---------------------------------------------------------------------
      1          6           0        1.273694    0.103415    0.000000
      2          6           0       -0.000000    0.519712    0.000000
      3          6           0       -1.131346   -0.495403    0.000000
      4          1           0        1.496403   -0.953373    0.000000
      5          1           0        2.077545    0.824681    0.000000
      6          1           0       -0.222709    1.576500    0.000000
      7          1           0       -2.088089    0.026844    0.000000
      8          1           0       -1.058620   -1.120498    0.889981
      9          1           0       -1.058620   -1.120498   -0.889981
 ---------------------------------------------------------------------

 SCF Done:  E(RHF) =  -117.065156892     A.U. after   12 cycles

 The electronic state is 1-A'.
 Alpha  occ. eigenvalues --  -11.22823 -11.21516 -11.21107  -1.05701  -0.92407
 Alpha  occ. eigenvalues --   -0.75319  -0.63330  -0.57625  -0.56889  -0.51679
 Alpha  occ. eigenvalues --   -0.48767  -0.34928
 Alpha virt. eigenvalues --    0.17746   0.25443   0.27532   0.30164   0.34108
 Alpha virt. eigenvalues --    0.34824   0.35406   0.44410   0.50276   0.69104
 Alpha virt. eigenvalues --    0.74438   0.77032   0.81501   0.83482   0.90839

 Mulliken charges:
               1
     1  C   -0.393479
     2  C   -0.157448
     3  C   -0.520654
     4  H    0.172711
     5  H    0.176180
     6  H    0.185893
     7  H    0.169319
     8  H    0.183740
     9  H    0.183740
 Sum of Mulliken charges =  -0.00000

 Dipole moment (field-independent basis, Debye):
    X=             -0.2999    Y=             -0.0320    Z=             -0.0000  Tot=              0.3016
 Quadrupole moment (field-independent basis, Debye-Ang):
   XX=            -19.4338   YY=            -18.7753   ZZ=            -21.7369
   XY=             -0.3343   XZ=             -0.0000   YZ=              0.0000

 Normal termination of Gaussian 16 at Mon May  2 11:25:45 2022.
