                         Program Version 5.0.0 -  RELEASE  -
|  1> ! RKS B3LYP cc-pvdz D3 pal8 Opt Freq NoUseSym
|  2>
|  3> *xyz 0 1
|  4>  C                 -6.65646033   -1.61889996    0.00000000
|  5>  H                 -6.12272786   -2.54627780    0.00000000
|  6>  H                 -7.72645933   -1.61743693   -0.00000000
|  7>  C                 -5.97725622   -0.44618993    0.00000000
|  8>  H                 -6.51098869    0.48118790    0.00000000
|  9>  C                 -4.43725766   -0.44829561   -0.00000000
| 10>  H                 -3.90352519   -1.37567345    0.00000000
| 11>  C                 -3.75805355    0.72441442    0.00000000
| 12>  H                 -4.29178602    1.65179225   -0.00000000
| 13>  H                 -2.68805455    0.72295138    0.00000000
| 14> *
| 15>
| 16>
| 17>                          ****END OF INPUT****
 Total Charge           Charge          ....    0
 Multiplicity           Mult            ....    1
 Number of Electrons    NEL             ....   30
Dispersion correction           -0.010758662
FINAL SINGLE POINT ENERGY      -155.894261997286
Dispersion correction            ... done
Dispersion correction           -0.010813985
FINAL SINGLE POINT ENERGY      -155.901099768681
Dispersion correction            ... done
Dispersion correction           -0.010816758
FINAL SINGLE POINT ENERGY      -155.902038417362
Dispersion correction            ... done
FINAL SINGLE POINT ENERGY      -155.902171796072
FINAL SINGLE POINT ENERGY      -155.902192950031
Dispersion correction           -0.010781458
FINAL SINGLE POINT ENERGY      -155.902195351296
Dispersion correction            ... done
Dispersion correction           -0.010781346
FINAL SINGLE POINT ENERGY      -155.902196426256
Dispersion correction            ... done
                    ***********************HURRAY********************

CARTESIAN COORDINATES (ANGSTROEM)
---------------------------------
  C     -6.641182   -1.621522   -0.000000
  H     -6.142784   -2.595981   -0.000000
  H     -7.733336   -1.619772   -0.000000
  C     -5.935500   -0.479043    0.000000
  H     -6.463850    0.482193    0.000000
  C     -4.479014   -0.415442    0.000000
  H     -3.950665   -1.376678    0.000000
  C     -3.773332    0.727036   -0.000000
  H     -4.271729    1.701496   -0.000000
  H     -2.681178    0.725287   -0.000001

 Multiplicity           Mult            ....    1
 Number of Electrons    NEL             ....   30
 Basis Dimension        Dim             ....   86

ORBITAL ENERGIES
----------------

  NO   OCC          E(Eh)            E(eV)
   0   2.0000     -10.193118      -277.3689
   1   2.0000     -10.192843      -277.3614
   2   2.0000     -10.185523      -277.1622
   3   2.0000     -10.185518      -277.1620
   4   2.0000      -0.803527       -21.8651
   5   2.0000      -0.731028       -19.8923
   6   2.0000      -0.601957       -16.3801
   7   2.0000      -0.547662       -14.9026
   8   2.0000      -0.462611       -12.5883
   9   2.0000      -0.457906       -12.4603
  10   2.0000      -0.391288       -10.6475
  11   2.0000      -0.382481       -10.4078
  12   2.0000      -0.342942        -9.3319
  13   2.0000      -0.323211        -8.7950
  14   2.0000      -0.232569        -6.3285
  15   0.0000      -0.028498        -0.7755
  16   0.0000       0.074396         2.0244
  17   0.0000       0.080324         2.1857
  18   0.0000       0.087163         2.3718
  19   0.0000       0.092579         2.5192

MULLIKEN ATOMIC CHARGES
-----------------------
   0 C :    0.022480
   1 H :    0.009485
   2 H :    0.017625
   3 C :   -0.023618
   4 H :   -0.025973
   5 C :   -0.023617
   6 H :   -0.025973
   7 C :    0.022480
   8 H :    0.009485
   9 H :    0.017625
Sum of atomic charges:   -0.0000000

LOEWDIN ATOMIC CHARGES
----------------------
   0 C :   -0.043763
   1 H :    0.022362
   2 H :    0.025817
   3 C :   -0.032646
   4 H :    0.028231
   5 C :   -0.032646
   6 H :    0.028231
   7 C :   -0.043764
   8 H :    0.022362
   9 H :    0.025817

  Mayer bond orders larger than 0.100000
B(  0-C ,  1-H ) :   0.9396 B(  0-C ,  2-H ) :   0.9367 B(  0-C ,  3-C ) :   1.9501
B(  0-C ,  7-C ) :   0.1268 B(  3-C ,  4-H ) :   0.9463 B(  3-C ,  5-C ) :   1.1595
B(  5-C ,  6-H ) :   0.9463 B(  5-C ,  7-C ) :   1.9501 B(  7-C ,  8-H ) :   0.9396
B(  7-C ,  9-H ) :   0.9367

Dispersion correction           -0.010781531
FINAL SINGLE POINT ENERGY      -155.902196440336

DIPOLE MOMENT
-------------
                                X             Y             Z
Electronic contribution:     -0.00000       0.00000       0.00000
Nuclear contribution   :      0.00000      -0.00000      -0.00000
                        -----------------------------------------
Total Dipole Moment    :     -0.00000      -0.00000      -0.00000
                        -----------------------------------------
Magnitude (a.u.)       :      0.00000
Magnitude (Debye)      :      0.00000

Dispersion correction in the Hessian             ... done   (      0.3 sec)

VIBRATIONAL FREQUENCIES
-----------------------

Scaling factor for frequencies =  1.000000000  (already applied!)

   0:         0.00 cm**-1
   1:         0.00 cm**-1
   2:         0.00 cm**-1
   3:         0.00 cm**-1
   4:         0.00 cm**-1
   5:         0.00 cm**-1
   6:       179.39 cm**-1
   7:       297.17 cm**-1
   8:       516.83 cm**-1
   9:       538.95 cm**-1
  10:       778.67 cm**-1
  11:       902.30 cm**-1
  12:       926.22 cm**-1
  13:       929.11 cm**-1
  14:       994.39 cm**-1
  15:       996.90 cm**-1
  16:      1055.08 cm**-1
  17:      1223.28 cm**-1
  18:      1303.95 cm**-1
  19:      1305.42 cm**-1
  20:      1397.96 cm**-1
  21:      1453.35 cm**-1
  22:      1658.68 cm**-1
  23:      1715.77 cm**-1
  24:      3127.86 cm**-1
  25:      3134.53 cm**-1
  26:      3140.17 cm**-1
  27:      3142.78 cm**-1
  28:      3231.91 cm**-1
  29:      3232.29 cm**-1

IR SPECTRUM
-----------

 Mode   freq       eps      Int      T**2         TX        TY        TZ
       cm**-1   L/(mol*cm) km/mol    a.u.
----------------------------------------------------------------------------
  6:    179.39   0.000050    0.25  0.000088  (-0.000000 -0.000000  0.009356)
  7:    297.17   0.000544    2.75  0.000571  (-0.021706 -0.009998  0.000000)
  8:    516.83   0.000000    0.00  0.000000  ( 0.000000 -0.000000  0.000000)
  9:    538.95   0.001547    7.82  0.000895  (-0.000000 -0.000000 -0.029924)
 10:    778.67   0.000000    0.00  0.000000  (-0.000000 -0.000000  0.000000)
 11:    902.30   0.000000    0.00  0.000000  (-0.000000 -0.000000 -0.000000)
 12:    926.22   0.012528   63.31  0.004221  ( 0.000000  0.000000  0.064969)
 13:    929.11   0.000000    0.00  0.000000  ( 0.000000  0.000000  0.000001)
 14:    994.39   0.000447    2.26  0.000140  ( 0.010428  0.005626 -0.000000)
 15:    996.90   0.000000    0.00  0.000000  (-0.000000 -0.000000 -0.000000)
 16:   1055.08   0.004614   23.32  0.001365  (-0.000000 -0.000000  0.036943)
 17:   1223.28   0.000000    0.00  0.000000  ( 0.000000 -0.000000  0.000000)
 18:   1303.95   0.000478    2.42  0.000114  ( 0.004862 -0.009529 -0.000000)
 19:   1305.42   0.000000    0.00  0.000000  (-0.000000  0.000000  0.000000)
 20:   1397.96   0.000910    4.60  0.000203  (-0.002433 -0.014045  0.000000)
 21:   1453.35   0.000000    0.00  0.000000  ( 0.000000  0.000000 -0.000000)
 22:   1658.68   0.002849   14.40  0.000536  (-0.015362 -0.017322 -0.000000)
 23:   1715.77   0.000000    0.00  0.000000  ( 0.000000  0.000000  0.000000)
 24:   3127.86   0.000000    0.00  0.000000  (-0.000000 -0.000000 -0.000000)
 25:   3134.53   0.003579   18.08  0.000356  (-0.003002  0.018635  0.000000)
 26:   3140.17   0.000000    0.00  0.000000  ( 0.000000 -0.000000 -0.000000)
 27:   3142.78   0.002668   13.49  0.000265  ( 0.013228 -0.009486 -0.000000)
 28:   3231.91   0.000000    0.00  0.000000  (-0.000002  0.000001 -0.000000)
 29:   3232.29   0.004861   24.57  0.000469  ( 0.018248 -0.011678  0.000000)

--------------------------
THERMOCHEMISTRY AT 298.15K
--------------------------

Temperature         ... 298.15 K
Pressure            ... 1.00 atm
Total Mass          ... 54.09 AMU

Throughout the following assumptions are being made:
  (1) The electronic state is orbitally nondegenerate
  (2) There are no thermally accessible electronically excited states
  (3) Hindered rotations indicated by low frequency modes are not
      treated as such but are treated as vibrations and this may
      cause some error
  (4) All equations used are the standard statistical mechanics
      equations for an ideal gas
  (5) All vibrations are strictly harmonic

freq.     179.39  E(vib)   ...       0.37
freq.     297.17  E(vib)   ...       0.27
freq.     516.83  E(vib)   ...       0.13
freq.     538.95  E(vib)   ...       0.12
freq.     778.67  E(vib)   ...       0.05
freq.     902.30  E(vib)   ...       0.03
freq.     926.22  E(vib)   ...       0.03
freq.     929.11  E(vib)   ...       0.03
freq.     994.39  E(vib)   ...       0.02
freq.     996.90  E(vib)   ...       0.02
freq.    1055.08  E(vib)   ...       0.02
freq.    1223.28  E(vib)   ...       0.01
freq.    1303.95  E(vib)   ...       0.01
freq.    1305.42  E(vib)   ...       0.01
freq.    1397.96  E(vib)   ...       0.00
freq.    1453.35  E(vib)   ...       0.00
freq.    1658.68  E(vib)   ...       0.00
freq.    1715.77  E(vib)   ...       0.00
freq.    3127.86  E(vib)   ...       0.00
freq.    3134.53  E(vib)   ...       0.00
freq.    3140.17  E(vib)   ...       0.00
freq.    3142.78  E(vib)   ...       0.00
freq.    3231.91  E(vib)   ...       0.00
freq.    3232.29  E(vib)   ...       0.00

------------
INNER ENERGY
------------

The inner energy is: U= E(el) + E(ZPE) + E(vib) + E(rot) + E(trans)
    E(el)   - is the total energy from the electronic structure calculation
              = E(kin-el) + E(nuc-el) + E(el-el) + E(nuc-nuc)
    E(ZPE)  - the the zero temperature vibrational energy from the frequency calculation
    E(vib)  - the the finite temperature correction to E(ZPE) due to population
              of excited vibrational states
    E(rot)  - is the rotational thermal energy
    E(trans)- is the translational thermal energy

Summary of contributions to the inner energy U:
Electronic energy                ...   -155.90219644 Eh
Zero point energy                ...      0.08470904 Eh      53.16 kcal/mol
Thermal vibrational correction   ...      0.00182183 Eh       1.14 kcal/mol
Thermal rotational correction    ...      0.00141627 Eh       0.89 kcal/mol
Thermal translational correction ...      0.00141627 Eh       0.89 kcal/mol
-----------------------------------------------------------------------
Total thermal energy                   -155.81283303 Eh

Summary of corrections to the electronic energy:
(perhaps to be used in another calculation)
Total thermal correction                  0.00465437 Eh       2.92 kcal/mol
Non-thermal (ZPE) correction              0.08470904 Eh      53.16 kcal/mol
-----------------------------------------------------------------------
Total correction                          0.08936341 Eh      56.08 kcal/mol

--------
ENTHALPY
--------

The enthalpy is H = U + kB*T
                kB is Boltzmann's constant
Total free energy                 ...   -155.81283303 Eh
Thermal Enthalpy correction       ...      0.00094421 Eh       0.59 kcal/mol
-----------------------------------------------------------------------
Total Enthalpy                    ...   -155.81188883 Eh

Note: Rotational entropy computed according to Herzberg
Infrared and Raman Spectra, Chapter V,1, Van Nostrand Reinhold, 1945
Point Group:  C2h, Symmetry Number:   2
Rotational constants in cm-1:     1.397081     0.146782     0.132827

Vibrational entropy computed according to the QRRHO of S. Grimme
Chem.Eur.J. 2012 18 9955

-------
ENTROPY
-------

The entropy contributions are T*S = T*(S(el)+S(vib)+S(rot)+S(trans))
     S(el)   - electronic entropy
     S(vib)  - vibrational entropy
     S(rot)  - rotational entropy
     S(trans)- translational entropy
The entropies will be listed as multiplied by the temperature to get
units of energy

Electronic entropy                ...      0.00000000 Eh      0.00 kcal/mol
Vibrational entropy               ...      0.00283523 Eh      1.78 kcal/mol
Rotational entropy                ...      0.01055736 Eh      6.62 kcal/mol
Translational entropy             ...      0.01800097 Eh     11.30 kcal/mol
-----------------------------------------------------------------------
Final entropy term                ...      0.03139356 Eh     19.70 kcal/mol

In case the symmetry of your molecule has not been determined correctly
or in case you have a reason to use a different symmetry number we print
out the resulting rotational entropy values for sn=1,12 :
 --------------------------------------------------------
|  sn= 1 | S(rot)=       0.01121181 Eh      7.04 kcal/mol|
|  sn= 2 | S(rot)=       0.01055736 Eh      6.62 kcal/mol|
|  sn= 3 | S(rot)=       0.01017453 Eh      6.38 kcal/mol|
|  sn= 4 | S(rot)=       0.00990290 Eh      6.21 kcal/mol|
|  sn= 5 | S(rot)=       0.00969221 Eh      6.08 kcal/mol|
|  sn= 6 | S(rot)=       0.00952007 Eh      5.97 kcal/mol|
|  sn= 7 | S(rot)=       0.00937452 Eh      5.88 kcal/mol|
|  sn= 8 | S(rot)=       0.00924845 Eh      5.80 kcal/mol|
|  sn= 9 | S(rot)=       0.00913724 Eh      5.73 kcal/mol|
|  sn=10 | S(rot)=       0.00903776 Eh      5.67 kcal/mol|
|  sn=11 | S(rot)=       0.00894777 Eh      5.61 kcal/mol|
|  sn=12 | S(rot)=       0.00886561 Eh      5.56 kcal/mol|
 --------------------------------------------------------

-------------------
GIBBS FREE ENERGY
-------------------

The Gibbs free energy is G = H - T*S

Total enthalpy                    ...   -155.81188883 Eh
Total entropy correction          ...     -0.03139356 Eh    -19.70 kcal/mol
-----------------------------------------------------------------------
Final Gibbs free energy         ...   -155.84328238 Eh

For completeness - the Gibbs free energy minus the electronic energy
G-E(el)                           ...      0.05891406 Eh     36.97 kcal/mol

                             ****ORCA TERMINATED NORMALLY****
TOTAL RUN TIME: 0 days 0 hours 0 minutes 46 seconds 212 msec
