 Gaussian 16, Revision A.03,
 Gaussian 16:  ES64L-G16RevA.03 25-Dec-2016

 --------------
 #p RHF/cc-pVDZ
 --------------

 ---------------------------------
 3,8-dicl-dibenzene SP RHF cc-pVDZ
 ---------------------------------
 Symbolic Z-matrix:
 Charge =  0 Multiplicity = 1

                         Standard orientation:
 ---------------------------------------------------------------------
 Center     Atomic      Atomic             Coordinates (Angstroms)
 Number     Number       Type             X           Y           Z
 ---------------------------------------------------------------------
      1          6           0        2.730812   -0.022491    1.452760
      2          6           0        1.349615   -0.011465    1.322312
      3          6           0        0.746550   -0.005826    0.066646
      4          6           0        1.562496   -0.011510   -1.062343
      5          6           0        2.944960   -0.022535   -0.946075
      6          6           0        3.520366   -0.028168    0.314268
      7          1           0        3.191814   -0.026765    2.429874
      8          1           0        0.733622   -0.007147    2.211768
      9          1           0        1.113794   -0.007226   -2.046846
     10          1           0        3.571749   -0.026843   -1.826081
     11          6           0       -0.746572    0.005775   -0.066648
     12          6           0       -1.446629    1.208552   -0.129164
     13          6           0       -1.465504   -1.185565   -0.130806
     14          6           0       -2.828364    1.226701   -0.252514
     15          1           0       -0.906707    2.144903   -0.080981
     16          6           0       -2.847410   -1.181634   -0.254171
     17          1           0       -0.940500   -2.130432   -0.083921
     18          6           0       -3.520327    0.027935   -0.314265
     19          1           0       -3.365065    2.163155   -0.300443
     20          1           0       -3.398825   -2.109435   -0.303380
     21         17           0        5.254105   -0.041683    0.469042
     22         17           0       -5.254096    0.041753   -0.469041
 ---------------------------------------------------------------------

 SCF Done:  E(RHF) =  -1378.12759342     A.U. after   16 cycles

 The electronic state is 1-A.
 Alpha  occ. eigenvalues -- -104.83671-104.83670 -11.30943 -11.30943 -11.26377
 Alpha  occ. eigenvalues --  -11.26311 -11.25893 -11.25893 -11.25887 -11.25887
 Alpha  occ. eigenvalues --  -11.25723 -11.25722 -11.25714 -11.25712 -10.56373
 Alpha  occ. eigenvalues --  -10.56373  -8.03137  -8.03137  -8.02794  -8.02793
 Alpha  occ. eigenvalues --   -8.02784  -8.02784  -1.20661  -1.19576  -1.14503
 Alpha  occ. eigenvalues --   -1.11535  -1.04034  -1.04034  -1.03674  -0.97461
 Alpha  occ. eigenvalues --   -0.85583  -0.85582  -0.84610  -0.80188  -0.72905
 Alpha  occ. eigenvalues --   -0.67417  -0.66145  -0.66145  -0.65237  -0.63922
 Alpha  occ. eigenvalues --   -0.60741  -0.60741  -0.58748  -0.54977  -0.54976
 Alpha  occ. eigenvalues --   -0.54025  -0.52150  -0.52149  -0.49953  -0.47030
 Alpha  occ. eigenvalues --   -0.47030  -0.45641  -0.45641  -0.36154  -0.35377
 Alpha  occ. eigenvalues --   -0.33924  -0.33924
 Alpha virt. eigenvalues --    0.10151   0.11762   0.11762   0.13224   0.17300
 Alpha virt. eigenvalues --    0.17361   0.21211   0.21212   0.22298   0.23990
 Alpha virt. eigenvalues --    0.24612   0.24639   0.26280   0.26280   0.32976

 Mulliken charges:
               1
     1  C    0.098881
     2  C    0.033018
     3  C   -0.094430
     4  C    0.033018
     5  C    0.098881
     6  C   -0.196630
     7  H    0.039790
     8  H    0.024065
     9  H    0.024065
    10  H    0.039790
    11  C   -0.094480
    12  C    0.033073
    13  C    0.033019
    14  C    0.098886
    15  H    0.024070
    16  C    0.098915
    17  H    0.024066
    18  C   -0.196675
    19  H    0.039792
    20  H    0.039793
    21  Cl  -0.100448
    22  Cl  -0.100461
 Sum of Mulliken charges =  -0.00000

 Dipole moment (field-independent basis, Debye):
    X=              0.0002    Y=              0.0001    Z=              0.0000  Tot=              0.0002
 Quadrupole moment (field-independent basis, Debye-Ang):
   XX=           -114.0050   YY=            -91.8067   ZZ=            -91.9816
   XY=              0.1769   XZ=             -1.9819   YZ=              0.0158

 Normal termination of Gaussian 16 at Wed May  4 13:01:20 2022.
