                         Program Version 5.0.0 -  RELEASE  -
|  1> ! RHF cc-pvtz UseSym pal8
|  2>
|  3> *xyz 0 1
|  4>  C   1.21105763915345      0.69916522296351     -0.00000002423937
|  5>  C   0.00000000882288      1.39827374718112     -0.00000003476372
|  6>  C   -1.21105761456966      0.69916520818333      0.00000001202970
|  7>  C   -1.21105765944965     -0.69916521253772     -0.00000002028759
|  8>  C   -0.00000002924690     -1.39827375425198     -0.00000006510495
|  9>  C   1.21105759634142     -0.69916519566758     -0.00000001139166
| 10>  H   2.15727867932261      1.24550656935944      0.00000002108822
| 11>  H   -0.00000003268748      2.49090825711365     -0.00000007876766
| 12>  H   -2.15727859099377      1.24550663211660      0.00000011262075
| 13>  H   -2.15727863065228     -1.24550666379260      0.00000002492918
| 14>  H   -0.00000001076256     -2.49090826242235     -0.00000006787266
| 15>  H   2.15727864472193     -1.24550654824542      0.00000013175977
| 16> *
| 17>
| 18>
| 19>                          ****END OF INPUT****

CARTESIAN COORDINATES (ANGSTROEM)
---------------------------------
  C      1.211058    0.699165    0.000000
  C      0.000000    1.398274   -0.000000
  C     -1.211058    0.699165   -0.000000
  C     -1.211058   -0.699165    0.000000
  C      0.000000   -1.398274   -0.000000
  C      1.211058   -0.699165   -0.000000
  H      2.157279    1.245507    0.000000
  H     -0.000000    2.490908    0.000000
  H     -2.157279    1.245507   -0.000000
  H     -2.157279   -1.245507    0.000000
  H      0.000000   -2.490908    0.000000
  H      2.157279   -1.245507   -0.000000

 Total Charge           Charge          ....    0
 Multiplicity           Mult            ....    1
 Number of Electrons    NEL             ....   42
 Basis Dimension        Dim             ....  264

ORBITAL ENERGIES
----------------

  NO   OCC          E(Eh)            E(eV)    Irrep
   0   2.0000     -11.237251      -305.7812    1-Ag
   1   2.0000     -11.236690      -305.7659    1-B3u
   2   2.0000     -11.236690      -305.7659    1-B2u
   3   2.0000     -11.235476      -305.7329    2-Ag
   4   2.0000     -11.235476      -305.7328    1-B1g
   5   2.0000     -11.234882      -305.7167    2-B2u
   6   2.0000      -1.145502       -31.1707    3-Ag
   7   2.0000      -1.010614       -27.5002    2-B3u
   8   2.0000      -1.010587       -27.4995    3-B2u
   9   2.0000      -0.819836       -22.3089    2-B1g
  10   2.0000      -0.819834       -22.3088    4-Ag
  11   2.0000      -0.703644       -19.1471    5-Ag
  12   2.0000      -0.639501       -17.4017    4-B2u
  13   2.0000      -0.615755       -16.7556    3-B3u
  14   2.0000      -0.583742       -15.8844    4-B3u
  15   2.0000      -0.583702       -15.8833    5-B2u
  16   2.0000      -0.499368       -13.5885    1-B1u
  17   2.0000      -0.491780       -13.3820    3-B1g
  18   2.0000      -0.491756       -13.3814    6-Ag
  19   2.0000      -0.334834        -9.1113    1-B2g
  20   2.0000      -0.334815        -9.1108    1-B3g
  21   0.0000       0.127286         3.4636    1-Au
  22   0.0000       0.127287         3.4637    2-B1u
  23   0.0000       0.145087         3.9480    7-Ag
  24   0.0000       0.169745         4.6190    5-B3u
  25   0.0000       0.169749         4.6191    6-B2u

MULLIKEN ATOMIC CHARGES
-----------------------
   0 C :   -0.148434
   1 C :   -0.148417
   2 C :   -0.148434
   3 C :   -0.148434
   4 C :   -0.148417
   5 C :   -0.148434
   6 H :    0.148438
   7 H :    0.148409
   8 H :    0.148438
   9 H :    0.148438
  10 H :    0.148409
  11 H :    0.148438
Sum of atomic charges:    0.0000000

LOEWDIN ATOMIC CHARGES
----------------------
   0 C :    0.023034
   1 C :    0.023036
   2 C :    0.023034
   3 C :    0.023034
   4 C :    0.023036
   5 C :    0.023034
   6 H :   -0.023034
   7 H :   -0.023036
   8 H :   -0.023034
   9 H :   -0.023034
  10 H :   -0.023036
  11 H :   -0.023034

  Mayer bond orders larger than 0.100000
B(  0-C ,  1-C ) :   1.3776 B(  0-C ,  5-C ) :   1.3776 B(  0-C ,  6-H ) :   0.9785
B(  1-C ,  2-C ) :   1.3776 B(  1-C ,  7-H ) :   0.9785 B(  2-C ,  3-C ) :   1.3776
B(  2-C ,  8-H ) :   0.9785 B(  3-C ,  4-C ) :   1.3776 B(  3-C ,  9-H ) :   0.9785
B(  4-C ,  5-C ) :   1.3776 B(  4-C , 10-H ) :   0.9785 B(  5-C , 11-H ) :   0.9785

FINAL SINGLE POINT ENERGY      -230.777483316850

DIPOLE MOMENT
-------------
                                X             Y             Z
Electronic contribution:      0.00000       0.00000       0.00000
Nuclear contribution   :      0.00000       0.00000       0.00000
                        -----------------------------------------
Total Dipole Moment    :      0.00000       0.00000       0.00000
                        -----------------------------------------
Magnitude (a.u.)       :      0.00000
Magnitude (Debye)      :      0.00000

Rotational constants in cm-1:     0.188954     0.188927     0.094470
Rotational constants in MHz :  5664.683605  5663.875242  2832.139697

                             ****ORCA TERMINATED NORMALLY****
TOTAL RUN TIME: 0 days 0 hours 0 minutes 39 seconds 915 msec
