                         Program Version 5.0.0 -  RELEASE  -
|  1> ! cc-pvtz UseSym pal8
|  2> ! MOread
|  3>
|  4> %moinp  "ben-rhf.gbw"
|  5>
|  6> %scf
|  7>     rotate {18,16,90} {23,29,90} end
|  8> end
|  9>
| 10> %casscf
| 11>     nel     6
| 12>     norb    6
| 13>     irrep   0
| 14>     mult    1
| 15>     nroots  1
| 16> end
| 17>
| 18> *xyz 0 1
| 19>  C   1.21105763915345      0.69916522296351     -0.00000002423937
| 20>  C   0.00000000882288      1.39827374718112     -0.00000003476372
| 21>  C   -1.21105761456966      0.69916520818333      0.00000001202970
| 22>  C   -1.21105765944965     -0.69916521253772     -0.00000002028759
| 23>  C   -0.00000002924690     -1.39827375425198     -0.00000006510495
| 24>  C   1.21105759634142     -0.69916519566758     -0.00000001139166
| 25>  H   2.15727867932261      1.24550656935944      0.00000002108822
| 26>  H   -0.00000003268748      2.49090825711365     -0.00000007876766
| 27>  H   -2.15727859099377      1.24550663211660      0.00000011262075
| 28>  H   -2.15727863065228     -1.24550666379260      0.00000002492918
| 29>  H   -0.00000001076256     -2.49090826242235     -0.00000006787266
| 30>  H   2.15727864472193     -1.24550654824542      0.00000013175977
| 31> *
| 32>
| 33>
| 34>                          ****END OF INPUT****

CARTESIAN COORDINATES (ANGSTROEM)
---------------------------------
  C      1.211058    0.699165    0.000000
  C      0.000000    1.398274   -0.000000
  C     -1.211058    0.699165   -0.000000
  C     -1.211058   -0.699165    0.000000
  C      0.000000   -1.398274   -0.000000
  C      1.211058   -0.699165   -0.000000
  H      2.157279    1.245507    0.000000
  H     -0.000000    2.490908    0.000000
  H     -2.157279    1.245507   -0.000000
  H     -2.157279   -1.245507    0.000000
  H      0.000000   -2.490908    0.000000
  H      2.157279   -1.245507   -0.000000

 Total Charge           Charge          ....    0
 Multiplicity           Mult            ....    1
 Number of Electrons    NEL             ....   42
 Basis Dimension        Dim             ....  264

ORBITAL ENERGIES
----------------

  NO   OCC          E(Eh)            E(eV)    Irrep
   0   2.0000     -11.226092      -305.4775    1-Ag
   1   2.0000     -11.225536      -305.4624    1-B3u
   2   2.0000     -11.225536      -305.4624    1-B2u
   3   2.0000     -11.224334      -305.4297    2-Ag
   4   2.0000     -11.224334      -305.4297    1-B1g
   5   2.0000     -11.223743      -305.4136    2-B2u
   6   2.0000      -1.139988       -31.0207    3-Ag
   7   2.0000      -1.004861       -27.3437    2-B3u
   8   2.0000      -1.004835       -27.3429    3-B2u
   9   2.0000      -0.814517       -22.1641    2-B1g
  10   2.0000      -0.814515       -22.1641    4-Ag
  11   2.0000      -0.698870       -19.0172    5-Ag
  12   2.0000      -0.634717       -17.2715    4-B2u
  13   2.0000      -0.609363       -16.5816    3-B3u
  14   2.0000      -0.578696       -15.7471    4-B3u
  15   2.0000      -0.578656       -15.7460    5-B2u
  16   2.0000      -0.486258       -13.2317    3-B1g
  17   2.0000      -0.486234       -13.2311    6-Ag
  18   0.1000       0.166110         4.5201    1-B1u
  19   1.9014      -0.321415        -8.7461    1-B2g
  20   0.0366       0.422420        11.4946    1-B3g
  21   0.0999       0.166114         4.5202    1-Au
  22   1.9607      -0.488246       -13.2858    2-B1u
  23   1.9014      -0.321395        -8.7456    2-B3g
  24   0.0000       0.146628         3.9899    7-Ag
  25   0.0000       0.171326         4.6620    5-B3u
  26   0.0000       0.171330         4.6621    6-B2u
  27   0.0000       0.202635         5.5140    4-B1g
  28   0.0000       0.202636         5.5140    8-Ag

MULLIKEN ATOMIC CHARGES
-----------------------
   0 C :   -0.142293
   1 C :   -0.142277
   2 C :   -0.142293
   3 C :   -0.142293
   4 C :   -0.142277
   5 C :   -0.142293
   6 H :    0.142298
   7 H :    0.142268
   8 H :    0.142298
   9 H :    0.142298
  10 H :    0.142268
  11 H :    0.142298
Sum of atomic charges:   -0.0000000

LOEWDIN ATOMIC CHARGES
----------------------
   0 C :    0.025860
   1 C :    0.025863
   2 C :    0.025860
   3 C :    0.025860
   4 C :    0.025863
   5 C :    0.025860
   6 H :   -0.025861
   7 H :   -0.025862
   8 H :   -0.025861
   9 H :   -0.025861
  10 H :   -0.025862
  11 H :   -0.025861

  Mayer bond orders larger than 0.100000
B(  0-C ,  1-C ) :   1.3202 B(  0-C ,  5-C ) :   1.3202 B(  0-C ,  6-H ) :   0.9820
B(  1-C ,  2-C ) :   1.3202 B(  1-C ,  7-H ) :   0.9820 B(  2-C ,  3-C ) :   1.3202
B(  2-C ,  8-H ) :   0.9820 B(  3-C ,  4-C ) :   1.3202 B(  3-C ,  9-H ) :   0.9820
B(  4-C ,  5-C ) :   1.3202 B(  4-C , 10-H ) :   0.9820 B(  5-C , 11-H ) :   0.9820

FINAL SINGLE POINT ENERGY      -230.849574241346

DIPOLE MOMENT
-------------
                                X             Y             Z
Electronic contribution:      0.00000       0.00000      -0.00000
Nuclear contribution   :      0.00000       0.00000       0.00000
                        -----------------------------------------
Total Dipole Moment    :      0.00000       0.00000      -0.00000
                        -----------------------------------------
Magnitude (a.u.)       :      0.00000
Magnitude (Debye)      :      0.00000

Rotational constants in cm-1:     0.188954     0.188927     0.094470
Rotational constants in MHz :  5664.683605  5663.875242  2832.139697

                             ****ORCA TERMINATED NORMALLY****
TOTAL RUN TIME: 0 days 0 hours 1 minutes 21 seconds 783 msec
