 Gaussian 16, Revision A.03,
 Gaussian 16:  ES64L-G16RevA.03 25-Dec-2016

 ---------------------------------------
 #p UHF/aug-cc-pVQZ guess=mix stable=opt
 ---------------------------------------

 ----------------------
 BH UHF at 0.9 Angstrom
 ----------------------
 Symbolic Z-matrix:
 Charge =  0 Multiplicity = 1

                         Standard orientation:
 ---------------------------------------------------------------------
 Center     Atomic      Atomic             Coordinates (Angstroms)
 Number     Number       Type             X           Y           Z
 ---------------------------------------------------------------------
      1          5           0        0.000000    0.000000    0.150000
      2          1           0        0.000000    0.000000   -0.750000
 ---------------------------------------------------------------------

 SCF Done:  E(UHF) =  -25.0687224259     A.U. after   12 cycles

 Unable to determine electronic state:  an orbital has unidentified symmetry.
 Alpha  occ. eigenvalues --   -7.63782  -0.73321  -0.36834
 Alpha virt. eigenvalues --    0.02683   0.02845   0.03420   0.04309   0.08215
 Alpha virt. eigenvalues --    0.08987   0.12226   0.13087   0.13409   0.14602
 Alpha virt. eigenvalues --    0.14665   0.14677   0.17627   0.27184   0.27210

  Beta  occ. eigenvalues --   -7.63782  -0.73321  -0.36834
  Beta virt. eigenvalues --    0.02683   0.02845   0.03420   0.04309   0.08215
  Beta virt. eigenvalues --    0.08987   0.12226   0.13087   0.13409   0.14602
  Beta virt. eigenvalues --    0.14665   0.14677   0.17627   0.27184   0.27210

 Mulliken charges and spin densities:
               1          2
     1  B    0.009852   0.000000
     2  H   -0.009852   0.000000
 Sum of Mulliken charges =  -0.00000   0.00000

 Dipole moment (field-independent basis, Debye):
    X=              0.0000    Y=              0.0000    Z=             -1.7806  Tot=              1.7806
 Quadrupole moment (field-independent basis, Debye-Ang):
   XX=             -7.2886   YY=             -6.0654   ZZ=             -9.1893
   XY=              0.0000   XZ=              0.0000   YZ=              0.0000

 Normal termination of Gaussian 16 at Sun May 22 18:34:22 2022.
