 Gaussian 16, Revision A.03,
 Gaussian 16:  ES64L-G16RevA.03 25-Dec-2016

 -------------------------------------
 #p UHF/aug-cc-pVQZ guess=read CCSD=FC
 -------------------------------------

 ------------------------
 BH UCCSD at 1.6 Angstrom
 ------------------------
 Symbolic Z-matrix:
 Charge =  0 Multiplicity = 1

                         Standard orientation:
 ---------------------------------------------------------------------
 Center     Atomic      Atomic             Coordinates (Angstroms)
 Number     Number       Type             X           Y           Z
 ---------------------------------------------------------------------
      1          5           0        0.000000    0.000000    0.266667
      2          1           0        0.000000    0.000000   -1.333333
 ---------------------------------------------------------------------

 SCF Done:  E(UHF) =  -25.1037409300     A.U. after    1 cycles
 E2 =    -0.6927618946D-01 EUMP2 =    -0.25173017119494D+02

 Unable to determine electronic state:  an orbital has unidentified symmetry.
 Alpha  occ. eigenvalues --   -7.72350  -0.57697  -0.36616
 Alpha virt. eigenvalues --    0.02212   0.02664   0.03325   0.04772   0.07567
 Alpha virt. eigenvalues --    0.07962   0.10501   0.13715   0.13818   0.14088
 Alpha virt. eigenvalues --    0.14530   0.14535   0.20423   0.23941   0.27117

  Beta  occ. eigenvalues --   -7.72350  -0.57697  -0.36616
  Beta virt. eigenvalues --    0.02212   0.02664   0.03325   0.04772   0.07567
  Beta virt. eigenvalues --    0.07962   0.10501   0.13715   0.13818   0.14088
  Beta virt. eigenvalues --    0.14530   0.14535   0.20423   0.23941   0.27117

 Mulliken charges and spin densities:
               1          2
     1  B    0.156189   0.000000
     2  H   -0.156189   0.000000
 Sum of Mulliken charges =   0.00000   0.00000

 Dipole moment (field-independent basis, Debye):
    X=              0.0000    Y=              0.0000    Z=             -0.1632  Tot=              0.1632
 Quadrupole moment (field-independent basis, Debye-Ang):
   XX=             -7.6033   YY=             -6.8548   ZZ=            -10.6789
   XY=              0.0000   XZ=              0.0000   YZ=             -0.0000

 Normal termination of Gaussian 16 at Sun May 22 18:38:42 2022.
