 Gaussian 16, Revision A.03,
 Gaussian 16:  ES64L-G16RevA.03 25-Dec-2016

 -------------------------------------
 #p UHF/aug-cc-pVQZ guess=read CCSD=FC
 -------------------------------------

 ------------------------
 BH UCCSD at 1.2 Angstrom
 ------------------------
 Symbolic Z-matrix:
 Charge =  0 Multiplicity = 1

                         Standard orientation:
 ---------------------------------------------------------------------
 Center     Atomic      Atomic             Coordinates (Angstroms)
 Number     Number       Type             X           Y           Z
 ---------------------------------------------------------------------
      1          5           0        0.000000    0.000000    0.200000
      2          1           0        0.000000    0.000000   -1.000000
 ---------------------------------------------------------------------

 SCF Done:  E(UHF) =  -25.1380158209     A.U. after    1 cycles
 E2 =    -0.6512568894D-01 EUMP2 =    -0.25203141509870D+02

 Unable to determine electronic state:  an orbital has unidentified symmetry.
 Alpha  occ. eigenvalues --   -7.67159  -0.64852  -0.37008
 Alpha virt. eigenvalues --    0.02588   0.02959   0.03367   0.04456   0.08138
 Alpha virt. eigenvalues --    0.08760   0.11561   0.13383   0.13577   0.14653
 Alpha virt. eigenvalues --    0.14659   0.15083   0.18789   0.26572   0.27464

  Beta  occ. eigenvalues --   -7.67159  -0.64852  -0.37008
  Beta virt. eigenvalues --    0.02588   0.02959   0.03367   0.04456   0.08138
  Beta virt. eigenvalues --    0.08760   0.11561   0.13383   0.13577   0.14653
  Beta virt. eigenvalues --    0.14659   0.15083   0.18789   0.26572   0.27464

 Mulliken charges and spin densities:
               1          2
     1  B    0.118297   0.000000
     2  H   -0.118297   0.000000
 Sum of Mulliken charges =  -0.00000   0.00000

 Dipole moment (field-independent basis, Debye):
    X=              0.0000    Y=             -0.0000    Z=             -1.3050  Tot=              1.3050
 Quadrupole moment (field-independent basis, Debye-Ang):
   XX=             -7.4080   YY=             -6.3745   ZZ=             -9.7420
   XY=              0.0000   XZ=              0.0000   YZ=              0.0000

 Normal termination of Gaussian 16 at Sun May 22 18:38:33 2022.
