                         Program Version 5.0.0 -  RELEASE  -
|  1> ! UHF CCSD aug-cc-pVQZ VeryTightSCF MOread
|  2>
|  3> %moinp "BH-1.0-UHF-O.gbw"
|  4>
|  5> *xyz 0 1
|  6>  B	0.0	0.0	0.0
|  7>  H	1.0	0.0	0.0
|  8> **                         ****END OF INPUT****

CARTESIAN COORDINATES (ANGSTROEM)
---------------------------------
  B      0.000000    0.000000    0.000000
  H      1.000000    0.000000    0.000000

 Total Charge           Charge          ....    0
 Multiplicity           Mult            ....    1
 Number of Electrons    NEL             ....    6
 Basis Dimension        Dim             ....  126

ORBITAL ENERGIES
----------------
                 SPIN UP ORBITALS
  NO   OCC          E(Eh)            E(eV)
   0   1.0000      -7.647195      -208.0908
   1   1.0000      -0.703231       -19.1359
   2   1.0000      -0.368623       -10.0307
   3   0.0000       0.026622         0.7244
   4   0.0000       0.028985         0.7887
   5   0.0000       0.034005         0.9253
   6   0.0000       0.043578         1.1858
   7   0.0000       0.082267         2.2386

                 SPIN DOWN ORBITALS
  NO   OCC          E(Eh)            E(eV)
   0   1.0000      -7.647195      -208.0908
   1   1.0000      -0.703231       -19.1359
   2   1.0000      -0.368623       -10.0307
   3   0.0000       0.026622         0.7244
   4   0.0000       0.028985         0.7887
   5   0.0000       0.034005         0.9253
   6   0.0000       0.043578         1.1858
   7   0.0000       0.082267         2.2386

E(0)                                       ...    -25.111945650
E(0)                                       ...    -25.111945650
E(CORR)                                    ...     -0.091877163
E(TOT)                                     ...    -25.203822813

MULLIKEN ATOMIC CHARGES AND SPIN DENSITIES
------------------------------------------
   0 B :    0.032689   -0.000000
   1 H :   -0.032689    0.000000
Sum of atomic charges       :   -0.0000000

LOEWDIN ATOMIC CHARGES AND SPIN DENSITIES
-----------------------------------------
   0 B :    0.604318    0.000000
   1 H :   -0.604318   -0.000000

  Mayer bond orders larger than 0.100000
B(  0-B ,  1-H ) :   0.8160

FINAL SINGLE POINT ENERGY       -25.203822812929

DIPOLE MOMENT
-------------
                                X             Y             Z
Electronic contribution:     -0.07219       0.00000       0.00000
Nuclear contribution   :      0.92264       0.00000       0.00000
                        -----------------------------------------
Total Dipole Moment    :      0.85044       0.00000       0.00000
                        -----------------------------------------
Magnitude (a.u.)       :      0.85044
Magnitude (Debye)      :      2.16165

Rotational constants in cm-1:     0.000000    18.283303    18.283303
Rotational constants in MHz :     0.000000 548119.639641 548119.639641

                             ****ORCA TERMINATED NORMALLY****
TOTAL RUN TIME: 0 days 0 hours 1 minutes 20 seconds 555 msec
