                         Program Version 5.0.0 -  RELEASE  -
|  1> ! UHF aug-cc-pVQZ pal8 VeryTightSCF
|  2>
|  3> %scf
|  4> 	STABPerform	True
|  5> 	STABRestartUHFifUnstable	True
|  6> end
|  7>
|  8> *xyz 0 1
|  9>  B	0.0	0.0	0.0
| 10>  H	1.8	0.0	0.0
| 11> **                         ****END OF INPUT****

CARTESIAN COORDINATES (ANGSTROEM)
---------------------------------
  B      0.000000    0.000000    0.000000
  H      1.800000    0.000000    0.000000

 Total Charge           Charge          ....    0
 Multiplicity           Mult            ....    1
 Number of Electrons    NEL             ....    6
 Basis Dimension        Dim             ....  126

ORBITAL ENERGIES
----------------
                 SPIN UP ORBITALS
  NO   OCC          E(Eh)            E(eV)
   0   1.0000      -7.747943      -210.8323
   1   1.0000      -0.562212       -15.2986
   2   1.0000      -0.356825        -9.7097
   3   0.0000       0.018573         0.5054
   4   0.0000       0.022924         0.6238
   5   0.0000       0.032032         0.8716
   6   0.0000       0.050257         1.3676
   7   0.0000       0.071539         1.9467

                 SPIN DOWN ORBITALS
  NO   OCC          E(Eh)            E(eV)
   0   1.0000      -7.747943      -210.8323
   1   1.0000      -0.562212       -15.2986
   2   1.0000      -0.356825        -9.7097
   3   0.0000       0.018573         0.5054
   4   0.0000       0.022924         0.6238
   5   0.0000       0.032032         0.8716
   6   0.0000       0.050257         1.3676
   7   0.0000       0.071539         1.9467

MULLIKEN ATOMIC CHARGES AND SPIN POPULATIONS
--------------------------------------------
   0 B :    0.161254   -0.000000
   1 H :   -0.161254    0.000000
Sum of atomic charges         :   -0.0000000

LOEWDIN ATOMIC CHARGES AND SPIN POPULATIONS
-------------------------------------------
   0 B :    0.301220    0.000000
   1 H :   -0.301220   -0.000000

  Mayer bond orders larger than 0.100000
B(  0-B ,  1-H ) :   0.9758

FINAL SINGLE POINT ENERGY       -25.077156014851

DIPOLE MOMENT
-------------
                                X             Y             Z
Electronic contribution:     -1.88359       0.00000       0.00000
Nuclear contribution   :      1.66075       0.00000       0.00000
                        -----------------------------------------
Total Dipole Moment    :     -0.22284       0.00000       0.00000
                        -----------------------------------------
Magnitude (a.u.)       :      0.22284
Magnitude (Debye)      :      0.56641

Rotational constants in cm-1:     0.000000     5.642995     5.642995
Rotational constants in MHz :     0.000000 169172.728284 169172.728284

                             ****ORCA TERMINATED NORMALLY****
TOTAL RUN TIME: 0 days 0 hours 0 minutes 13 seconds 177 msec
