 Gaussian 16, Revision A.03,
 Gaussian 16:  ES64L-G16RevA.03 25-Dec-2016

 -------------------------------------
 #p UHF/aug-cc-pVQZ guess=read CCSD=FC
 -------------------------------------

 ------------------------
 BH UCCSD at 1.0 Angstrom
 ------------------------
 Symbolic Z-matrix:
 Charge =  0 Multiplicity = 1

                         Standard orientation:
 ---------------------------------------------------------------------
 Center     Atomic      Atomic             Coordinates (Angstroms)
 Number     Number       Type             X           Y           Z
 ---------------------------------------------------------------------
      1          5           0        0.000000    0.000000    0.166667
      2          1           0        0.000000    0.000000   -0.833333
 ---------------------------------------------------------------------

 SCF Done:  E(UHF) =  -25.1119454439     A.U. after    1 cycles
 E2 =    -0.6419972886D-01 EUMP2 =    -0.25176145172760D+02

 Unable to determine electronic state:  an orbital has unidentified symmetry.
 Alpha  occ. eigenvalues --   -7.64719  -0.70323  -0.36862
 Alpha virt. eigenvalues --    0.02662   0.02898   0.03400   0.04358   0.08227
 Alpha virt. eigenvalues --    0.08955   0.12028   0.13164   0.13439   0.14670
 Alpha virt. eigenvalues --    0.14675   0.14847   0.18005   0.27400   0.27427

  Beta  occ. eigenvalues --   -7.64719  -0.70323  -0.36862
  Beta virt. eigenvalues --    0.02662   0.02898   0.03400   0.04358   0.08227
  Beta virt. eigenvalues --    0.08955   0.12028   0.13164   0.13439   0.14670
  Beta virt. eigenvalues --    0.14675   0.14847   0.18005   0.27400   0.27427

 Mulliken charges and spin densities:
               1          2
     1  B    0.052359  -0.000000
     2  H   -0.052359   0.000000
 Sum of Mulliken charges =  -0.00000  -0.00000

 Dipole moment (field-independent basis, Debye):
    X=             -0.0000    Y=             -0.0000    Z=             -1.6620  Tot=              1.6620
 Quadrupole moment (field-independent basis, Debye-Ang):
   XX=             -7.3320   YY=             -6.1643   ZZ=             -9.3732
   XY=             -0.0000   XZ=              0.0000   YZ=              0.0000

 Normal termination of Gaussian 16 at Sun May 22 18:38:28 2022.
