 Gaussian 16, Revision A.03,
 Gaussian 16:  ES64L-G16RevA.03 25-Dec-2016

 -------------------------------------
 #p UHF/aug-cc-pVQZ guess=read CCSD=FC
 -------------------------------------

 ------------------------
 BH UCCSD at 1.8 Angstrom
 ------------------------
 Symbolic Z-matrix:
 Charge =  0 Multiplicity = 1

                         Standard orientation:
 ---------------------------------------------------------------------
 Center     Atomic      Atomic             Coordinates (Angstroms)
 Number     Number       Type             X           Y           Z
 ---------------------------------------------------------------------
      1          5           0        0.000000    0.000000    0.300000
      2          1           0        0.000000    0.000000   -1.500000
 ---------------------------------------------------------------------

 SCF Done:  E(UHF) =  -25.0771558449     A.U. after    1 cycles
 E2 =    -0.7210870410D-01 EUMP2 =    -0.25149264549001D+02

 Unable to determine electronic state:  an orbital has unidentified symmetry.
 Alpha  occ. eigenvalues --   -7.74794  -0.56221  -0.35683
 Alpha virt. eigenvalues --    0.01857   0.02292   0.03203   0.05026   0.07154
 Alpha virt. eigenvalues --    0.07439   0.09992   0.12184   0.13941   0.14058
 Alpha virt. eigenvalues --    0.14416   0.14422   0.20428   0.23407   0.27215

  Beta  occ. eigenvalues --   -7.74794  -0.56221  -0.35683
  Beta virt. eigenvalues --    0.01857   0.02292   0.03203   0.05026   0.07154
  Beta virt. eigenvalues --    0.07439   0.09992   0.12184   0.13941   0.14058
  Beta virt. eigenvalues --    0.14416   0.14422   0.20428   0.23407   0.27215

 Mulliken charges and spin densities:
               1          2
     1  B    0.161234   0.000000
     2  H   -0.161234   0.000000
 Sum of Mulliken charges =  -0.00000   0.00000

 Dipole moment (field-independent basis, Debye):
    X=              0.0000    Y=             -0.0000    Z=              0.5664  Tot=              0.5664
 Quadrupole moment (field-independent basis, Debye-Ang):
   XX=             -7.7386   YY=             -7.1177   ZZ=            -11.3427
   XY=              0.0000   XZ=              0.0000   YZ=              0.0000

 Normal termination of Gaussian 16 at Sun May 22 18:34:33 2022.
