 Gaussian 16, Revision A.03,
 Gaussian 16:  ES64L-G16RevA.03 25-Dec-2016

 -------------------------------------
 #p UHF/aug-cc-pVQZ guess=read CCSD=FC
 -------------------------------------

 ------------------------
 BH UCCSD at 2.0 Angstrom
 ------------------------
 Symbolic Z-matrix:
 Charge =  0 Multiplicity = 1

                         Standard orientation:
 ---------------------------------------------------------------------
 Center     Atomic      Atomic             Coordinates (Angstroms)
 Number     Number       Type             X           Y           Z
 ---------------------------------------------------------------------
      1          5           0        0.000000    0.000000    0.333333
      2          1           0        0.000000    0.000000   -1.666667
 ---------------------------------------------------------------------

 SCF Done:  E(UHF) =  -25.0557189217     A.U. after    1 cycles
 E2 =    -0.6348560019D-01 EUMP2 =    -0.25119204521842D+02

 Unable to determine electronic state:  an orbital has unidentified symmetry.
 Alpha  occ. eigenvalues --   -7.74487  -0.56484  -0.33833
 Alpha virt. eigenvalues --    0.01693   0.01876   0.03162   0.04927   0.06990
 Alpha virt. eigenvalues --    0.07091   0.09468   0.11598   0.14116   0.14167
 Alpha virt. eigenvalues --    0.14328   0.14328   0.19697   0.25291   0.27533

  Beta  occ. eigenvalues --   -7.73748  -0.53362  -0.38374
  Beta virt. eigenvalues --    0.01942   0.02204   0.03236   0.05354   0.07286
  Beta virt. eigenvalues --    0.07427   0.09631   0.11557   0.14089   0.14147
  Beta virt. eigenvalues --    0.14388   0.14404   0.19941   0.23601   0.26622

 Mulliken charges and spin densities:
               1          2
     1  B    0.132953   0.651673
     2  H   -0.132953  -0.651673
 Sum of Mulliken charges =  -0.00000  -0.00000

 Dipole moment (field-independent basis, Debye):
    X=             -0.0000    Y=             -0.0429    Z=              0.7937  Tot=              0.7949
 Quadrupole moment (field-independent basis, Debye-Ang):
   XX=             -7.2362   YY=             -7.5742   ZZ=            -11.8774
   XY=             -0.0000   XZ=             -0.0000   YZ=              0.3739

 Normal termination of Gaussian 16 at Sun May 22 18:34:40 2022.
