                         Program Version 5.0.0 -  RELEASE  -
|  1> ! UHF CCSD aug-cc-pVQZ VeryTightSCF MOread
|  2>
|  3> %moinp "BH-2.2-UHF-O.gbw"
|  4>
|  5> *xyz 0 1
|  6>  B	0.0	0.0	0.0
|  7>  H	2.2	0.0	0.0
|  8> **                         ****END OF INPUT****

CARTESIAN COORDINATES (ANGSTROEM)
---------------------------------
  B      0.000000    0.000000    0.000000
  H      2.200000    0.000000    0.000000

 Total Charge           Charge          ....    0
 Multiplicity           Mult            ....    1
 Number of Electrons    NEL             ....    6
 Basis Dimension        Dim             ....  126

ORBITAL ENERGIES
----------------
                 SPIN UP ORBITALS
  NO   OCC          E(Eh)            E(eV)
   0   1.0000      -7.733412      -210.4368
   1   1.0000      -0.558054       -15.1854
   2   1.0000      -0.331860        -9.0304
   3   0.0000       0.017971         0.4890
   4   0.0000       0.017971         0.4890
   5   0.0000       0.031749         0.8639
   6   0.0000       0.048197         1.3115
   7   0.0000       0.070970         1.9312

                 SPIN DOWN ORBITALS
  NO   OCC          E(Eh)            E(eV)
   0   1.0000      -7.723635      -210.1708
   1   1.0000      -0.514872       -14.0104
   2   1.0000      -0.403277       -10.9737
   3   0.0000       0.020853         0.5674
   4   0.0000       0.020853         0.5674
   5   0.0000       0.033629         0.9151
   6   0.0000       0.054743         1.4896
   7   0.0000       0.074759         2.0343

E(0)                                       ...    -25.045098349
E(0)                                       ...    -25.045098349
E(CORR)                                    ...     -0.099204188
E(TOT)                                     ...    -25.144302537

MULLIKEN ATOMIC CHARGES AND SPIN DENSITIES
------------------------------------------
   0 B :    0.118539    0.039618
   1 H :   -0.118539   -0.039618
Sum of atomic charges       :   -0.0000000

LOEWDIN ATOMIC CHARGES AND SPIN DENSITIES
-----------------------------------------
   0 B :    0.200210    0.022831
   1 H :   -0.200210   -0.022831

  Mayer bond orders larger than 0.100000
B(  0-B ,  1-H ) :   0.8818

FINAL SINGLE POINT ENERGY       -25.144302536743

DIPOLE MOMENT
-------------
                                X             Y             Z
Electronic contribution:     -2.56907       0.00000       0.00000
Nuclear contribution   :      2.02980       0.00000       0.00000
                        -----------------------------------------
Total Dipole Moment    :     -0.53927       0.00000       0.00000
                        -----------------------------------------
Magnitude (a.u.)       :      0.53927
Magnitude (Debye)      :      1.37073

Rotational constants in cm-1:     0.000000     3.777542     3.777542
Rotational constants in MHz :     0.000000 113247.859430 113247.859430

                             ****ORCA TERMINATED NORMALLY****
TOTAL RUN TIME: 0 days 0 hours 0 minutes 56 seconds 913 msec
