                         Program Version 5.0.0 -  RELEASE  -
|  1> ! UHF CCSD aug-cc-pVQZ VeryTightSCF MOread
|  2>
|  3> %moinp "BH-2.0-UHF-O.gbw"
|  4>
|  5> *xyz 0 1
|  6>  B	0.0	0.0	0.0
|  7>  H	2.0	0.0	0.0
|  8> **                         ****END OF INPUT****

CARTESIAN COORDINATES (ANGSTROEM)
---------------------------------
  B      0.000000    0.000000    0.000000
  H      2.000000    0.000000    0.000000

 Total Charge           Charge          ....    0
 Multiplicity           Mult            ....    1
 Number of Electrons    NEL             ....    6
 Basis Dimension        Dim             ....  126

ORBITAL ENERGIES
----------------
                 SPIN UP ORBITALS
  NO   OCC          E(Eh)            E(eV)
   0   1.0000      -7.744875      -210.7488
   1   1.0000      -0.564840       -15.3701
   2   1.0000      -0.338333        -9.2065
   3   0.0000       0.016928         0.4606
   4   0.0000       0.018763         0.5106
   5   0.0000       0.031623         0.8605
   6   0.0000       0.049269         1.3407
   7   0.0000       0.069901         1.9021

                 SPIN DOWN ORBITALS
  NO   OCC          E(Eh)            E(eV)
   0   1.0000      -7.737484      -210.5477
   1   1.0000      -0.533616       -14.5204
   2   1.0000      -0.383743       -10.4422
   3   0.0000       0.019422         0.5285
   4   0.0000       0.022043         0.5998
   5   0.0000       0.032362         0.8806
   6   0.0000       0.053540         1.4569
   7   0.0000       0.072863         1.9827

E(0)                                       ...    -25.055719096
E(0)                                       ...    -25.055719096
E(CORR)                                    ...     -0.107705267
E(TOT)                                     ...    -25.163424362

MULLIKEN ATOMIC CHARGES AND SPIN DENSITIES
------------------------------------------
   0 B :    0.123456   -0.024378
   1 H :   -0.123456    0.024378
Sum of atomic charges       :   -0.0000000

LOEWDIN ATOMIC CHARGES AND SPIN DENSITIES
-----------------------------------------
   0 B :    0.246187   -0.015568
   1 H :   -0.246187    0.015568

  Mayer bond orders larger than 0.100000
B(  0-B ,  1-H ) :   0.8704

FINAL SINGLE POINT ENERGY       -25.163424362460

DIPOLE MOMENT
-------------
                                X             Y             Z
Electronic contribution:     -2.21406       0.00441      -0.00194
Nuclear contribution   :      1.84527       0.00000       0.00000
                        -----------------------------------------
Total Dipole Moment    :     -0.36879       0.00441      -0.00194
                        -----------------------------------------
Magnitude (a.u.)       :      0.36882
Magnitude (Debye)      :      0.93746

Rotational constants in cm-1:     0.000000     4.570826     4.570826
Rotational constants in MHz :     0.000000 137029.909910 137029.909910

                             ****ORCA TERMINATED NORMALLY****
TOTAL RUN TIME: 0 days 0 hours 1 minutes 9 seconds 279 msec
