                         Program Version 5.0.0 -  RELEASE  -
|  1> ! UHF aug-cc-pVQZ pal8 VeryTightSCF
|  2>
|  3> %scf
|  4> 	STABPerform	True
|  5> 	STABRestartUHFifUnstable	True
|  6> end
|  7>
|  8> *xyz 0 1
|  9>  B	0.0	0.0	0.0
| 10>  H	2.4	0.0	0.0
| 11> **                         ****END OF INPUT****

CARTESIAN COORDINATES (ANGSTROEM)
---------------------------------
  B      0.000000    0.000000    0.000000
  H      2.400000    0.000000    0.000000

 Total Charge           Charge          ....    0
 Multiplicity           Mult            ....    1
 Number of Electrons    NEL             ....    6
 Basis Dimension        Dim             ....  126

ORBITAL ENERGIES
----------------
                 SPIN UP ORBITALS
  NO   OCC          E(Eh)            E(eV)
   0   1.0000      -7.723258      -210.1605
   1   1.0000      -0.554265       -15.0823
   2   1.0000      -0.326820        -8.8932
   3   0.0000       0.019433         0.5288
   4   0.0000       0.019433         0.5288
   5   0.0000       0.031240         0.8501
   6   0.0000       0.047290         1.2868
   7   0.0000       0.072459         1.9717

                 SPIN DOWN ORBITALS
  NO   OCC          E(Eh)            E(eV)
   0   1.0000      -7.711707      -209.8462
   1   1.0000      -0.502610       -13.6767
   2   1.0000      -0.421623       -11.4729
   3   0.0000       0.022686         0.6173
   4   0.0000       0.022686         0.6173
   5   0.0000       0.035165         0.9569
   6   0.0000       0.055094         1.4992
   7   0.0000       0.077300         2.1034

MULLIKEN ATOMIC CHARGES AND SPIN POPULATIONS
--------------------------------------------
   0 B :    0.059896    0.924446
   1 H :   -0.059896   -0.924446
Sum of atomic charges         :   -0.0000000

LOEWDIN ATOMIC CHARGES AND SPIN POPULATIONS
-------------------------------------------
   0 B :    0.152250    0.634316
   1 H :   -0.152250   -0.634316

  Mayer bond orders larger than 0.100000
B(  0-B ,  1-H ) :   0.1415

FINAL SINGLE POINT ENERGY       -25.039636432146

DIPOLE MOMENT
-------------
                                X             Y             Z
Electronic contribution:     -2.45348       0.00000       0.00000
Nuclear contribution   :      2.21433       0.00000       0.00000
                        -----------------------------------------
Total Dipole Moment    :     -0.23916       0.00000       0.00000
                        -----------------------------------------
Magnitude (a.u.)       :      0.23916
Magnitude (Debye)      :      0.60788

Rotational constants in cm-1:     0.000000     3.174185     3.174185
Rotational constants in MHz :     0.000000 95159.659660 95159.659660

                             ****ORCA TERMINATED NORMALLY****
TOTAL RUN TIME: 0 days 0 hours 0 minutes 14 seconds 341 msec
