 Gaussian 16, Revision A.03,
 Gaussian 16:  ES64L-G16RevA.03 25-Dec-2016

 ---------------------------------------
 #p UHF/aug-cc-pVQZ guess=mix stable=opt
 ---------------------------------------

 ----------------------
 BH UHF at 2.6 Angstrom
 ----------------------
 Symbolic Z-matrix:
 Charge =  0 Multiplicity = 1

                         Standard orientation:
 ---------------------------------------------------------------------
 Center     Atomic      Atomic             Coordinates (Angstroms)
 Number     Number       Type             X           Y           Z
 ---------------------------------------------------------------------
      1          5           0        0.000000    0.000000    0.433333
      2          1           0        0.000000    0.000000   -2.166667
 ---------------------------------------------------------------------

 SCF Done:  E(UHF) =  -24.9872357344     A.U. after   17 cycles
 SCF Done:  E(UHF) =  -25.0366519832     a.u. after   14 cycles

 The electronic state is 1-SG.
 Alpha  occ. eigenvalues --   -7.71583  -0.55137  -0.32355
 Alpha virt. eigenvalues --    0.02066   0.02066   0.03011   0.04687   0.07378
 Alpha virt. eigenvalues --    0.07378   0.08701   0.10751   0.14418   0.14418
 Alpha virt. eigenvalues --    0.14450   0.14450   0.18913   0.26277   0.26277

  Beta  occ. eigenvalues --   -7.70302  -0.49503  -0.43384
  Beta virt. eigenvalues --    0.02406   0.02406   0.03668   0.05518   0.07939
  Beta virt. eigenvalues --    0.07939   0.08853   0.11487   0.14419   0.14419
  Beta virt. eigenvalues --    0.14463   0.14463   0.18826   0.24811   0.24811

 Mulliken charges and spin densities:
               1          2
     1  B    0.035993   0.964539
     2  H   -0.035993  -0.964539
 Sum of Mulliken charges =   0.00000  -0.00000

 Dipole moment (field-independent basis, Debye):
    X=              0.0000    Y=              0.0000    Z=              0.4550  Tot=              0.4550
 Quadrupole moment (field-independent basis, Debye-Ang):
   XX=             -7.3150   YY=             -7.3150   ZZ=            -11.5932
   XY=              0.0000   XZ=              0.0000   YZ=              0.0000

 Normal termination of Gaussian 16 at Sun May 22 18:31:12 2022.
