                         Program Version 5.0.0 -  RELEASE  -
|  1> ! UHF CCSD aug-cc-pVQZ VeryTightSCF MOread
|  2>
|  3> %moinp "BH-3.2-UHF-O.gbw"
|  4>
|  5> *xyz 0 1
|  6>  B	0.0	0.0	0.0
|  7>  H	3.2	0.0	0.0
|  8> **                         ****END OF INPUT****

CARTESIAN COORDINATES (ANGSTROEM)
---------------------------------
  B      0.000000    0.000000    0.000000
  H      3.200000    0.000000    0.000000

 Total Charge           Charge          ....    0
 Multiplicity           Mult            ....    1
 Number of Electrons    NEL             ....    6
 Basis Dimension        Dim             ....  126

ORBITAL ENERGIES
----------------
                 SPIN UP ORBITALS
  NO   OCC          E(Eh)            E(eV)
   0   1.0000      -7.705200      -209.6692
   1   1.0000      -0.547022       -14.8852
   2   1.0000      -0.319788        -8.7019
   3   0.0000       0.022690         0.6174
   4   0.0000       0.022690         0.6174
   5   0.0000       0.025510         0.6942
   6   0.0000       0.047630         1.2961
   7   0.0000       0.076111         2.0711

                 SPIN DOWN ORBITALS
  NO   OCC          E(Eh)            E(eV)
   0   1.0000      -7.690629      -209.2727
   1   1.0000      -0.490399       -13.3444
   2   1.0000      -0.446094       -12.1388
   3   0.0000       0.026204         0.7131
   4   0.0000       0.026204         0.7131
   5   0.0000       0.040253         1.0953
   6   0.0000       0.054847         1.4925
   7   0.0000       0.082838         2.2541

E(0)                                       ...    -25.033602953
E(0)                                       ...    -25.033602953
E(CORR)                                    ...     -0.068880759
E(TOT)                                     ...    -25.102483712

MULLIKEN ATOMIC CHARGES AND SPIN DENSITIES
------------------------------------------
   0 B :    0.021275    0.935572
   1 H :   -0.021275   -0.935572
Sum of atomic charges       :   -0.0000000

LOEWDIN ATOMIC CHARGES AND SPIN DENSITIES
-----------------------------------------
   0 B :    0.013432    0.811209
   1 H :   -0.013432   -0.811209

FINAL SINGLE POINT ENERGY       -25.102483712085

DIPOLE MOMENT
-------------
                                X             Y             Z
Electronic contribution:     -3.12020       0.00000       0.00000
Nuclear contribution   :      2.95244       0.00000       0.00000
                        -----------------------------------------
Total Dipole Moment    :     -0.16776       0.00000       0.00000
                        -----------------------------------------
Magnitude (a.u.)       :      0.16776
Magnitude (Debye)      :      0.42641

Rotational constants in cm-1:     0.000000     1.785479     1.785479
Rotational constants in MHz :     0.000000 53527.308559 53527.308559

                             ****ORCA TERMINATED NORMALLY****
TOTAL RUN TIME: 0 days 0 hours 1 minutes 4 seconds 119 msec
