 Gaussian 16, Revision A.03,
 Gaussian 16:  ES64L-G16RevA.03 25-Dec-2016

 -------------------------------------
 #p UHF/aug-cc-pVQZ guess=read CCSD=FC
 -------------------------------------

 ------------------------
 BH UCCSD at 3.0 Angstrom
 ------------------------
 Symbolic Z-matrix:
 Charge =  0 Multiplicity = 1

                         Standard orientation:
 ---------------------------------------------------------------------
 Center     Atomic      Atomic             Coordinates (Angstroms)
 Number     Number       Type             X           Y           Z
 ---------------------------------------------------------------------
      1          5           0        0.000000    0.000000    0.500000
      2          1           0        0.000000    0.000000   -2.500000
 ---------------------------------------------------------------------

 SCF Done:  E(UHF) =  -25.0341069856     A.U. after    1 cycles
 E2 =    -0.4907592535D-01 EUMP2 =    -0.25083182910964D+02

 The electronic state is 1-SG.
 Alpha  occ. eigenvalues --   -7.70736  -0.54793  -0.32045
 Alpha virt. eigenvalues --    0.02224   0.02224   0.02702   0.04720   0.07557
 Alpha virt. eigenvalues --    0.07557   0.08390   0.10648   0.14487   0.14487
 Alpha virt. eigenvalues --    0.14490   0.14490   0.18791   0.25140   0.25140

  Beta  occ. eigenvalues --   -7.69315  -0.49009  -0.44457
  Beta virt. eigenvalues --    0.02573   0.02573   0.03925   0.05507   0.08208
  Beta virt. eigenvalues --    0.08208   0.08493   0.11468   0.14442   0.14442
  Beta virt. eigenvalues --    0.14491   0.14491   0.18729   0.23605   0.23605

 Mulliken charges and spin densities:
               1          2
     1  B    0.012787   0.993127
     2  H   -0.012787  -0.993127
 Sum of Mulliken charges =  -0.00000  -0.00000

 Dipole moment (field-independent basis, Debye):
    X=              0.0000    Y=              0.0000    Z=              0.2305  Tot=              0.2305
 Quadrupole moment (field-independent basis, Debye-Ang):
   XX=             -7.3154   YY=             -7.3154   ZZ=            -11.2124
   XY=              0.0000   XZ=              0.0000   YZ=              0.0000

 Normal termination of Gaussian 16 at Sun May 22 18:35:00 2022.
