                         Program Version 5.0.0 -  RELEASE  -
|  1> ! UHF CCSD aug-cc-pVQZ VeryTightSCF MOread
|  2>
|  3> %moinp "BH-4.2-UHF-O.gbw"
|  4>
|  5> *xyz 0 1
|  6>  B	0.0	0.0	0.0
|  7>  H	4.2	0.0	0.0
|  8> **                         ****END OF INPUT****

CARTESIAN COORDINATES (ANGSTROEM)
---------------------------------
  B      0.000000    0.000000    0.000000
  H      4.200000    0.000000    0.000000

 Total Charge           Charge          ....    0
 Multiplicity           Mult            ....    1
 Number of Electrons    NEL             ....    6
 Basis Dimension        Dim             ....  126

ORBITAL ENERGIES
----------------
                 SPIN UP ORBITALS
  NO   OCC          E(Eh)            E(eV)
   0   1.0000      -7.686748      -209.1671
   1   1.0000      -0.494971       -13.4688
   2   1.0000      -0.446492       -12.1497
   3   0.0000       0.027165         0.7392
   4   0.0000       0.027165         0.7392
   5   0.0000       0.043198         1.1755
   6   0.0000       0.052566         1.4304
   7   0.0000       0.077036         2.0963

                 SPIN DOWN ORBITALS
  NO   OCC          E(Eh)            E(eV)
   0   1.0000      -7.701850      -209.5780
   1   1.0000      -0.545524       -14.8445
   2   1.0000      -0.318906        -8.6779
   3   0.0000       0.020180         0.5491
   4   0.0000       0.023508         0.6397
   5   0.0000       0.023508         0.6397
   6   0.0000       0.049861         1.3568
   7   0.0000       0.076577         2.0838

E(0)                                       ...    -25.032980930
E(0)                                       ...    -25.032980930
E(CORR)                                    ...     -0.066743441
E(TOT)                                     ...    -25.099724371

MULLIKEN ATOMIC CHARGES AND SPIN DENSITIES
------------------------------------------
   0 B :    0.001489   -0.999172
   1 H :   -0.001489    0.999172
Sum of atomic charges       :    0.0000000

LOEWDIN ATOMIC CHARGES AND SPIN DENSITIES
-----------------------------------------
   0 B :   -0.011988   -0.966569
   1 H :    0.011988    0.966569

FINAL SINGLE POINT ENERGY       -25.099724370971

DIPOLE MOMENT
-------------
                                X             Y             Z
Electronic contribution:     -3.89621      -0.00000      -0.00000
Nuclear contribution   :      3.87507       0.00000       0.00000
                        -----------------------------------------
Total Dipole Moment    :     -0.02114      -0.00000      -0.00000
                        -----------------------------------------
Magnitude (a.u.)       :      0.02114
Magnitude (Debye)      :      0.05373

Rotational constants in cm-1:     0.000000     1.036468     1.036468
Rotational constants in MHz :     0.000000 31072.541930 31072.541930

                             ****ORCA TERMINATED NORMALLY****
TOTAL RUN TIME: 0 days 0 hours 0 minutes 45 seconds 981 msec
