                         Program Version 5.0.0 -  RELEASE  -
|  1> ! UHF CCSD aug-cc-pVQZ VeryTightSCF MOread
|  2>
|  3> %moinp "BH-4.0-UHF-O.gbw"
|  4>
|  5> *xyz 0 1
|  6>  B	0.0	0.0	0.0
|  7>  H	4.0	0.0	0.0
|  8> **                         ****END OF INPUT****

CARTESIAN COORDINATES (ANGSTROEM)
---------------------------------
  B      0.000000    0.000000    0.000000
  H      4.000000    0.000000    0.000000

 Total Charge           Charge          ....    0
 Multiplicity           Mult            ....    1
 Number of Electrons    NEL             ....    6
 Basis Dimension        Dim             ....  126

ORBITAL ENERGIES
----------------
                 SPIN UP ORBITALS
  NO   OCC          E(Eh)            E(eV)
   0   1.0000      -7.686997      -209.1738
   1   1.0000      -0.494217       -13.4483
   2   1.0000      -0.446577       -12.1520
   3   0.0000       0.027071         0.7366
   4   0.0000       0.027071         0.7366
   5   0.0000       0.042836         1.1656
   6   0.0000       0.053091         1.4447
   7   0.0000       0.078028         2.1232

                 SPIN DOWN ORBITALS
  NO   OCC          E(Eh)            E(eV)
   0   1.0000      -7.702068      -209.5839
   1   1.0000      -0.545632       -14.8474
   2   1.0000      -0.318962        -8.6794
   3   0.0000       0.020972         0.5707
   4   0.0000       0.023441         0.6379
   5   0.0000       0.023441         0.6379
   6   0.0000       0.049460         1.3459
   7   0.0000       0.077046         2.0965

E(0)                                       ...    -25.033012498
E(0)                                       ...    -25.033012498
E(CORR)                                    ...     -0.066859465
E(TOT)                                     ...    -25.099871963

MULLIKEN ATOMIC CHARGES AND SPIN DENSITIES
------------------------------------------
   0 B :    0.002590   -0.997830
   1 H :   -0.002590    0.997830
Sum of atomic charges       :    0.0000000

LOEWDIN ATOMIC CHARGES AND SPIN DENSITIES
-----------------------------------------
   0 B :   -0.012890   -0.954088
   1 H :    0.012890    0.954088

FINAL SINGLE POINT ENERGY       -25.099871963308

DIPOLE MOMENT
-------------
                                X             Y             Z
Electronic contribution:     -3.72091      -0.00000      -0.00000
Nuclear contribution   :      3.69055       0.00000       0.00000
                        -----------------------------------------
Total Dipole Moment    :     -0.03037      -0.00000      -0.00000
                        -----------------------------------------
Magnitude (a.u.)       :      0.03037
Magnitude (Debye)      :      0.07719

Rotational constants in cm-1:     0.000000     1.142706     1.142706
Rotational constants in MHz :     0.000000 34257.477478 34257.477478

                             ****ORCA TERMINATED NORMALLY****
TOTAL RUN TIME: 0 days 0 hours 0 minutes 46 seconds 661 msec
