                         Program Version 5.0.0 -  RELEASE  -
|  1> ! UHF CCSD aug-cc-pVQZ VeryTightSCF MOread
|  2>
|  3> %moinp "BH-4.8-UHF-O.gbw"
|  4>
|  5> *xyz 0 1
|  6>  B	0.0	0.0	0.0
|  7>  H	4.8	0.0	0.0
|  8> **                         ****END OF INPUT****

CARTESIAN COORDINATES (ANGSTROEM)
---------------------------------
  B      0.000000    0.000000    0.000000
  H      4.800000    0.000000    0.000000

 Total Charge           Charge          ....    0
 Multiplicity           Mult            ....    1
 Number of Electrons    NEL             ....    6
 Basis Dimension        Dim             ....  126

ORBITAL ENERGIES
----------------
                 SPIN UP ORBITALS
  NO   OCC          E(Eh)            E(eV)
   0   1.0000      -7.701565      -209.5702
   1   1.0000      -0.545369       -14.8402
   2   1.0000      -0.318822        -8.6756
   3   0.0000       0.018364         0.4997
   4   0.0000       0.023612         0.6425
   5   0.0000       0.023612         0.6425
   6   0.0000       0.050903         1.3851
   7   0.0000       0.073037         1.9874

                 SPIN DOWN ORBITALS
  NO   OCC          E(Eh)            E(eV)
   0   1.0000      -7.686427      -209.1583
   1   1.0000      -0.496600       -13.5132
   2   1.0000      -0.446330       -12.1452
   3   0.0000       0.027333         0.7438
   4   0.0000       0.027333         0.7438
   5   0.0000       0.043616         1.1868
   6   0.0000       0.051244         1.3944
   7   0.0000       0.074676         2.0320

E(0)                                       ...    -25.032944662
E(0)                                       ...    -25.032944662
E(CORR)                                    ...     -0.066584757
E(TOT)                                     ...    -25.099529419

MULLIKEN ATOMIC CHARGES AND SPIN DENSITIES
------------------------------------------
   0 B :    0.000326    1.000038
   1 H :   -0.000326   -1.000038
Sum of atomic charges       :   -0.0000000

LOEWDIN ATOMIC CHARGES AND SPIN DENSITIES
-----------------------------------------
   0 B :   -0.006988    0.986985
   1 H :    0.006988   -0.986985

FINAL SINGLE POINT ENERGY       -25.099529419144

DIPOLE MOMENT
-------------
                                X             Y             Z
Electronic contribution:     -4.43699       0.00000       0.00000
Nuclear contribution   :      4.42866       0.00000       0.00000
                        -----------------------------------------
Total Dipole Moment    :     -0.00834       0.00000       0.00000
                        -----------------------------------------
Magnitude (a.u.)       :      0.00834
Magnitude (Debye)      :      0.02120

Rotational constants in cm-1:     0.000000     0.793546     0.793546
Rotational constants in MHz :     0.000000 23789.914915 23789.914915

                             ****ORCA TERMINATED NORMALLY****
TOTAL RUN TIME: 0 days 0 hours 0 minutes 45 seconds 469 msec
