 Gaussian 16, Revision A.03,
 Gaussian 16:  ES64L-G16RevA.03 25-Dec-2016

 -------------------------------------
 #p UHF/aug-cc-pVQZ guess=read CCSD=FC
 -------------------------------------

 ------------------------
 BH UCCSD at 4.2 Angstrom
 ------------------------
 Symbolic Z-matrix:
 Charge =  0 Multiplicity = 1

                         Standard orientation:
 ---------------------------------------------------------------------
 Center     Atomic      Atomic             Coordinates (Angstroms)
 Number     Number       Type             X           Y           Z
 ---------------------------------------------------------------------
      1          5           0        0.000000    0.000000    0.700000
      2          1           0        0.000000    0.000000   -3.500000
 ---------------------------------------------------------------------

 SCF Done:  E(UHF) =  -25.0329807478     A.U. after    1 cycles
 E2 =    -0.4741867941D-01 EUMP2 =    -0.25080399427183D+02

 The electronic state is 1-SG.
 Alpha  occ. eigenvalues --   -7.68674  -0.49497  -0.44649
 Alpha virt. eigenvalues --    0.02716   0.02716   0.04320   0.05257   0.07704
 Alpha virt. eigenvalues --    0.08413   0.08413   0.11594   0.14223   0.14223
 Alpha virt. eigenvalues --    0.14563   0.14563   0.17630   0.20773   0.20773

  Beta  occ. eigenvalues --   -7.70185  -0.54552  -0.31891
  Beta virt. eigenvalues --    0.02018   0.02351   0.02351   0.04986   0.07658
  Beta virt. eigenvalues --    0.07713   0.07713   0.10805   0.14293   0.14293
  Beta virt. eigenvalues --    0.14557   0.14557   0.18096   0.22253   0.22253

 Mulliken charges and spin densities:
               1          2
     1  B    0.000716  -1.000558
     2  H   -0.000716   1.000558
 Sum of Mulliken charges =  -0.00000  -0.00000

 Dipole moment (field-independent basis, Debye):
    X=              0.0000    Y=              0.0000    Z=              0.0326  Tot=              0.0326
 Quadrupole moment (field-independent basis, Debye-Ang):
   XX=             -7.3081   YY=             -7.3081   ZZ=            -10.8098
   XY=              0.0000   XZ=              0.0000   YZ=              0.0000

 Normal termination of Gaussian 16 at Sun May 22 18:39:23 2022.
