 Gaussian 16, Revision A.03,
 Gaussian 16:  ES64L-G16RevA.03 25-Dec-2016

 -------------------------------------
 #p UHF/aug-cc-pVQZ guess=read CCSD=FC
 -------------------------------------

 ------------------------
 BH UCCSD at 5.4 Angstrom
 ------------------------
 Symbolic Z-matrix:
 Charge =  0 Multiplicity = 1

                         Standard orientation:
 ---------------------------------------------------------------------
 Center     Atomic      Atomic             Coordinates (Angstroms)
 Number     Number       Type             X           Y           Z
 ---------------------------------------------------------------------
      1          5           0        0.000000    0.000000    0.900000
      2          1           0        0.000000    0.000000   -4.500000
 ---------------------------------------------------------------------

 SCF Done:  E(UHF) =  -25.0329355363     A.U. after    1 cycles
 E2 =    -0.4727192080D-01 EUMP2 =    -0.25080207457052D+02

 The electronic state is 1-SG.
 Alpha  occ. eigenvalues --   -7.68634  -0.49759  -0.44627
 Alpha virt. eigenvalues --    0.02741   0.02741   0.04307   0.05072   0.07288
 Alpha virt. eigenvalues --    0.08427   0.08427   0.11905   0.14396   0.14396
 Alpha virt. eigenvalues --    0.14574   0.14574   0.15243   0.18791   0.18791

  Beta  occ. eigenvalues --   -7.70148  -0.54532  -0.31879
  Beta virt. eigenvalues --    0.01714   0.02365   0.02365   0.05177   0.06947
  Beta virt. eigenvalues --    0.07729   0.07729   0.11179   0.14319   0.14319
  Beta virt. eigenvalues --    0.14566   0.14566   0.15534   0.20360   0.20360

 Mulliken charges and spin densities:
               1          2
     1  B    0.000132  -1.000011
     2  H   -0.000132   1.000011
 Sum of Mulliken charges =  -0.00000   0.00000

 Dipole moment (field-independent basis, Debye):
    X=              0.0000    Y=              0.0000    Z=              0.0088  Tot=              0.0088
 Quadrupole moment (field-independent basis, Debye-Ang):
   XX=             -7.3050   YY=             -7.3050   ZZ=            -10.7283
   XY=             -0.0000   XZ=              0.0000   YZ=             -0.0000

 Normal termination of Gaussian 16 at Sun May 22 18:36:03 2022.
