                         Program Version 5.0.0 -  RELEASE  -
|  1> ! UHF CCSD aug-cc-pVQZ VeryTightSCF MOread
|  2>
|  3> %moinp "BH-5.8-UHF-O.gbw"
|  4>
|  5> *xyz 0 1
|  6>  B	0.0	0.0	0.0
|  7>  H	5.8	0.0	0.0
|  8> **                         ****END OF INPUT****

CARTESIAN COORDINATES (ANGSTROEM)
---------------------------------
  B      0.000000    0.000000    0.000000
  H      5.800000    0.000000    0.000000

 Total Charge           Charge          ....    0
 Multiplicity           Mult            ....    1
 Number of Electrons    NEL             ....    6
 Basis Dimension        Dim             ....  126

ORBITAL ENERGIES
----------------
                 SPIN UP ORBITALS
  NO   OCC          E(Eh)            E(eV)
   0   1.0000      -7.686321      -209.1554
   1   1.0000      -0.498049       -13.5526
   2   1.0000      -0.446253       -12.1432
   3   0.0000       0.027438         0.7466
   4   0.0000       0.027438         0.7466
   5   0.0000       0.042343         1.1522
   6   0.0000       0.050730         1.3804
   7   0.0000       0.071890         1.9562

                 SPIN DOWN ORBITALS
  NO   OCC          E(Eh)            E(eV)
   0   1.0000      -7.701468      -209.5676
   1   1.0000      -0.545305       -14.8385
   2   1.0000      -0.318776        -8.6743
   3   0.0000       0.016552         0.4504
   4   0.0000       0.023660         0.6438
   5   0.0000       0.023660         0.6438
   6   0.0000       0.052279         1.4226
   7   0.0000       0.067071         1.8251

E(0)                                       ...    -25.032933946
E(0)                                       ...    -25.032933946
E(CORR)                                    ...     -0.066519159
E(TOT)                                     ...    -25.099453105

MULLIKEN ATOMIC CHARGES AND SPIN DENSITIES
------------------------------------------
   0 B :    0.000071   -0.999932
   1 H :   -0.000071    0.999932
Sum of atomic charges       :    0.0000000

LOEWDIN ATOMIC CHARGES AND SPIN DENSITIES
-----------------------------------------
   0 B :   -0.001864   -0.997336
   1 H :    0.001864    0.997336

FINAL SINGLE POINT ENERGY       -25.099453105464

DIPOLE MOMENT
-------------
                                X             Y             Z
Electronic contribution:     -5.35405       0.00000      -0.00000
Nuclear contribution   :      5.35129       0.00000       0.00000
                        -----------------------------------------
Total Dipole Moment    :     -0.00276       0.00000      -0.00000
                        -----------------------------------------
Magnitude (a.u.)       :      0.00276
Magnitude (Debye)      :      0.00701

Rotational constants in cm-1:     0.000000     0.543499     0.543499
Rotational constants in MHz :     0.000000 16293.687266 16293.687266

                             ****ORCA TERMINATED NORMALLY****
TOTAL RUN TIME: 0 days 0 hours 0 minutes 51 seconds 473 msec
