                         Program Version 5.0.0 -  RELEASE  -
|  1> ! UHF CCSD aug-cc-pVQZ VeryTightSCF MOread
|  2>
|  3> %moinp "BH-5.2-UHF-O.gbw"
|  4>
|  5> *xyz 0 1
|  6>  B	0.0	0.0	0.0
|  7>  H	5.2	0.0	0.0
|  8> **                         ****END OF INPUT****

CARTESIAN COORDINATES (ANGSTROEM)
---------------------------------
  B      0.000000    0.000000    0.000000
  H      5.200000    0.000000    0.000000

 Total Charge           Charge          ....    0
 Multiplicity           Mult            ....    1
 Number of Electrons    NEL             ....    6
 Basis Dimension        Dim             ....  126

ORBITAL ENERGIES
----------------
                 SPIN UP ORBITALS
  NO   OCC          E(Eh)            E(eV)
   0   1.0000      -7.701502      -209.5685
   1   1.0000      -0.545330       -14.8392
   2   1.0000      -0.318796        -8.6749
   3   0.0000       0.017499         0.4762
   4   0.0000       0.023641         0.6433
   5   0.0000       0.023641         0.6433
   6   0.0000       0.051493         1.4012
   7   0.0000       0.070664         1.9229

                 SPIN DOWN ORBITALS
  NO   OCC          E(Eh)            E(eV)
   0   1.0000      -7.686357      -209.1564
   1   1.0000      -0.497313       -13.5326
   2   1.0000      -0.446282       -12.1440
   3   0.0000       0.027391         0.7454
   4   0.0000       0.027391         0.7454
   5   0.0000       0.043337         1.1793
   6   0.0000       0.050805         1.3825
   7   0.0000       0.073433         1.9982

E(0)                                       ...    -25.032937545
E(0)                                       ...    -25.032937545
E(CORR)                                    ...     -0.066545107
E(TOT)                                     ...    -25.099482652

MULLIKEN ATOMIC CHARGES AND SPIN DENSITIES
------------------------------------------
   0 B :    0.000172    0.999998
   1 H :   -0.000172   -0.999998
Sum of atomic charges       :   -0.0000000

LOEWDIN ATOMIC CHARGES AND SPIN DENSITIES
-----------------------------------------
   0 B :   -0.004269    0.993064
   1 H :    0.004269   -0.993064

FINAL SINGLE POINT ENERGY       -25.099482652000

DIPOLE MOMENT
-------------
                                X             Y             Z
Electronic contribution:     -4.80279      -0.00000      -0.00000
Nuclear contribution   :      4.79771       0.00000       0.00000
                        -----------------------------------------
Total Dipole Moment    :     -0.00508      -0.00000      -0.00000
                        -----------------------------------------
Magnitude (a.u.)       :      0.00508
Magnitude (Debye)      :      0.01290

Rotational constants in cm-1:     0.000000     0.676158     0.676158
Rotational constants in MHz :     0.000000 20270.696732 20270.696732

                             ****ORCA TERMINATED NORMALLY****
TOTAL RUN TIME: 0 days 0 hours 0 minutes 35 seconds 811 msec
