                         Program Version 5.0.0 -  RELEASE  -
|  1> ! UHF CCSD aug-cc-pVQZ VeryTightSCF MOread
|  2>
|  3> %moinp "BH-5.0-UHF-O.gbw"
|  4>
|  5> *xyz 0 1
|  6>  B	0.0	0.0	0.0
|  7>  H	5.0	0.0	0.0
|  8> **                         ****END OF INPUT****

CARTESIAN COORDINATES (ANGSTROEM)
---------------------------------
  B      0.000000    0.000000    0.000000
  H      5.000000    0.000000    0.000000

 Total Charge           Charge          ....    0
 Multiplicity           Mult            ....    1
 Number of Electrons    NEL             ....    6
 Basis Dimension        Dim             ....  126

ORBITAL ENERGIES
----------------
                 SPIN UP ORBITALS
  NO   OCC          E(Eh)            E(eV)
   0   1.0000      -7.701527      -209.5692
   1   1.0000      -0.545346       -14.8396
   2   1.0000      -0.318808        -8.6752
   3   0.0000       0.017904         0.4872
   4   0.0000       0.023629         0.6430
   5   0.0000       0.023629         0.6430
   6   0.0000       0.051206         1.3934
   7   0.0000       0.071853         1.9552

                 SPIN DOWN ORBITALS
  NO   OCC          E(Eh)            E(eV)
   0   1.0000      -7.686385      -209.1572
   1   1.0000      -0.496985       -13.5236
   2   1.0000      -0.446302       -12.1445
   3   0.0000       0.027366         0.7447
   4   0.0000       0.027366         0.7447
   5   0.0000       0.043526         1.1844
   6   0.0000       0.050975         1.3871
   7   0.0000       0.074030         2.0145

E(0)                                       ...    -25.032940365
E(0)                                       ...    -25.032940365
E(CORR)                                    ...     -0.066561429
E(TOT)                                     ...    -25.099501794

MULLIKEN ATOMIC CHARGES AND SPIN DENSITIES
------------------------------------------
   0 B :    0.000229    1.000029
   1 H :   -0.000229   -1.000029
Sum of atomic charges       :   -0.0000000

LOEWDIN ATOMIC CHARGES AND SPIN DENSITIES
-----------------------------------------
   0 B :   -0.005508    0.990495
   1 H :    0.005508   -0.990495

FINAL SINGLE POINT ENERGY       -25.099501793838

DIPOLE MOMENT
-------------
                                X             Y             Z
Electronic contribution:     -4.61962      -0.00000      -0.00000
Nuclear contribution   :      4.61318       0.00000       0.00000
                        -----------------------------------------
Total Dipole Moment    :     -0.00643      -0.00000      -0.00000
                        -----------------------------------------
Magnitude (a.u.)       :      0.00643
Magnitude (Debye)      :      0.01635

Rotational constants in cm-1:     0.000000     0.731332     0.731332
Rotational constants in MHz :     0.000000 21924.785586 21924.785586

                             ****ORCA TERMINATED NORMALLY****
TOTAL RUN TIME: 0 days 0 hours 0 minutes 40 seconds 600 msec
