                         Program Version 5.0.0 -  RELEASE  -
|  1> ! UHF CCSD aug-cc-pVQZ VeryTightSCF MOread
|  2>
|  3> %moinp "BH-6.0-UHF-O.gbw"
|  4>
|  5> *xyz 0 1
|  6>  B	0.0	0.0	0.0
|  7>  H	6.0	0.0	0.0
|  8> **                         ****END OF INPUT****

CARTESIAN COORDINATES (ANGSTROEM)
---------------------------------
  B      0.000000    0.000000    0.000000
  H      6.000000    0.000000    0.000000

 Total Charge           Charge          ....    0
 Multiplicity           Mult            ....    1
 Number of Electrons    NEL             ....    6
 Basis Dimension        Dim             ....  126

ORBITAL ENERGIES
----------------
                 SPIN UP ORBITALS
  NO   OCC          E(Eh)            E(eV)
   0   1.0000      -7.686315      -209.1553
   1   1.0000      -0.498233       -13.5576
   2   1.0000      -0.446248       -12.1430
   3   0.0000       0.027448         0.7469
   4   0.0000       0.027448         0.7469
   5   0.0000       0.041916         1.1406
   6   0.0000       0.050792         1.3821
   7   0.0000       0.071435         1.9439

                 SPIN DOWN ORBITALS
  NO   OCC          E(Eh)            E(eV)
   0   1.0000      -7.701463      -209.5675
   1   1.0000      -0.545301       -14.8384
   2   1.0000      -0.318772        -8.6742
   3   0.0000       0.016303         0.4436
   4   0.0000       0.023664         0.6439
   5   0.0000       0.023664         0.6439
   6   0.0000       0.052516         1.4290
   7   0.0000       0.065876         1.7926

E(0)                                       ...    -25.032933591
E(0)                                       ...    -25.032933591
E(CORR)                                    ...     -0.066514562
E(TOT)                                     ...    -25.099448153

MULLIKEN ATOMIC CHARGES AND SPIN DENSITIES
------------------------------------------
   0 B :    0.000047   -0.999927
   1 H :   -0.000047    0.999927
Sum of atomic charges       :    0.0000000

LOEWDIN ATOMIC CHARGES AND SPIN DENSITIES
-----------------------------------------
   0 B :   -0.001391   -0.998078
   1 H :    0.001391    0.998078

FINAL SINGLE POINT ENERGY       -25.099448152599

DIPOLE MOMENT
-------------
                                X             Y             Z
Electronic contribution:     -5.53813       0.00000      -0.00000
Nuclear contribution   :      5.53582       0.00000       0.00000
                        -----------------------------------------
Total Dipole Moment    :     -0.00231       0.00000      -0.00000
                        -----------------------------------------
Magnitude (a.u.)       :      0.00231
Magnitude (Debye)      :      0.00588

Rotational constants in cm-1:     0.000000     0.507870     0.507870
Rotational constants in MHz :     0.000000 15225.545546 15225.545546

                             ****ORCA TERMINATED NORMALLY****
TOTAL RUN TIME: 0 days 0 hours 0 minutes 48 seconds 132 msec
