 Gaussian 16, Revision A.03,
 Gaussian 16:  ES64L-G16RevA.03 25-Dec-2016

 -------------------------------------
 #p UHF/aug-cc-pVQZ guess=read CCSD=FC
 -------------------------------------

 ------------------------
 BH UCCSD at 6.0 Angstrom
 ------------------------
 Symbolic Z-matrix:
 Charge =  0 Multiplicity = 1

                         Standard orientation:
 ---------------------------------------------------------------------
 Center     Atomic      Atomic             Coordinates (Angstroms)
 Number     Number       Type             X           Y           Z
 ---------------------------------------------------------------------
      1          5           0        0.000000    0.000000    1.000000
      2          1           0        0.000000    0.000000   -5.000000
 ---------------------------------------------------------------------

 SCF Done:  E(UHF) =  -25.0329334081     A.U. after    1 cycles
 E2 =    -0.4725797245D-01 EUMP2 =    -0.25080191380537D+02

 The electronic state is 1-SG.
 Alpha  occ. eigenvalues --   -7.68631  -0.49823  -0.44625
 Alpha virt. eigenvalues --    0.02745   0.02745   0.04192   0.05079   0.07144
 Alpha virt. eigenvalues --    0.08427   0.08427   0.12048   0.14435   0.14575
 Alpha virt. eigenvalues --    0.14575   0.14683   0.14683   0.18092   0.18092

  Beta  occ. eigenvalues --   -7.70146  -0.54530  -0.31877
  Beta virt. eigenvalues --    0.01630   0.02366   0.02366   0.05252   0.06588
  Beta virt. eigenvalues --    0.07728   0.07728   0.11447   0.14486   0.14486
  Beta virt. eigenvalues --    0.14567   0.14567   0.14597   0.19773   0.19773

 Mulliken charges and spin densities:
               1          2
     1  B    0.000060  -0.999930
     2  H   -0.000060   0.999930
 Sum of Mulliken charges =  -0.00000   0.00000

 Dipole moment (field-independent basis, Debye):
    X=              0.0000    Y=              0.0000    Z=              0.0054  Tot=              0.0054
 Quadrupole moment (field-independent basis, Debye-Ang):
   XX=             -7.3043   YY=             -7.3043   ZZ=            -10.7110
   XY=             -0.0000   XZ=              0.0000   YZ=             -0.0000

 Normal termination of Gaussian 16 at Sun May 22 18:35:46 2022.
