                         Program Version 5.0.0 -  RELEASE  -
|  1> ! TZVP Usesym VeryTightSCF
|  2>
|  3> %pal
|  4> 	nprocs	16
|  5> end
|  6>
|  7> # cytosine
|  8>
|  9> *xyz 0 1
| 10>  H 	-2.114860 		-1.429678 		0.000000
| 11>  H 	-0.173973 		-2.806186 		0.000000
| 12>  H 	2.073228 		-1.658021 		0.000000
| 13>  H 	3.175240 		0.564335 		0.000000
| 14>  H 	2.235202 		2.033636 		0.000000
| 15>  C 	-0.060783 		-1.726152 		0.000000
| 16>  C 	1.144884 		-1.099470 		0.000000
| 17>  C 	1.107049 		0.338190 		0.000000
| 18>  C 	-1.227573 		0.430359 		0.000000
| 19>  O 	-2.315109 		0.998271 		0.000000
| 20>  N 	0.000000 		1.058130 		0.000000
| 21>  N 	-1.201178 		-0.989148 		0.000000
| 22>  N 	2.278974 		1.024187 		0.000000
| 23> *
| 24>
| 25>                          ****END OF INPUT****

CARTESIAN COORDINATES (ANGSTROEM)
---------------------------------
  H     -2.068662   -1.458962    0.000000
  H     -0.127775   -2.835470    0.000000
  H      2.119426   -1.687305    0.000000
  H      3.221438    0.535051    0.000000
  H      2.281400    2.004352    0.000000
  C     -0.014585   -1.755436    0.000000
  C      1.191082   -1.128754    0.000000
  C      1.153247    0.308906    0.000000
  C     -1.181375    0.401075    0.000000
  O     -2.268911    0.968987    0.000000
  N      0.046198    1.028846    0.000000
  N     -1.154980   -1.018432    0.000000
  N      2.325172    0.994903    0.000000

 Total Charge           Charge          ....    0
 Multiplicity           Mult            ....    1
 Number of Electrons    NEL             ....   58
 Basis Dimension        Dim             ....  182

ORBITAL ENERGIES
----------------

  NO   OCC          E(Eh)            E(eV)    Irrep
   0   2.0000     -20.500249      -557.8401    1-A'
   1   2.0000     -15.625406      -425.1889    2-A'
   2   2.0000     -15.595179      -424.3664    3-A'
   3   2.0000     -15.541650      -422.9098    4-A'
   4   2.0000     -11.373141      -309.4789    5-A'
   5   2.0000     -11.355824      -309.0077    6-A'
   6   2.0000     -11.335045      -308.4423    7-A'
   7   2.0000     -11.251004      -306.1554    8-A'
   8   2.0000      -1.384012       -37.6609    9-A'
   9   2.0000      -1.299513       -35.3615   10-A'
  10   2.0000      -1.265080       -34.4246   11-A'
  11   2.0000      -1.171710       -31.8839   12-A'
  12   2.0000      -1.069962       -29.1151   13-A'
  13   2.0000      -0.905660       -24.6443   14-A'
  14   2.0000      -0.880598       -23.9623   15-A'
  15   2.0000      -0.766488       -20.8572   16-A'
  16   2.0000      -0.761706       -20.7271   17-A'
  17   2.0000      -0.723160       -19.6782   18-A'
  18   2.0000      -0.681940       -18.5565   19-A'
  19   2.0000      -0.629997       -17.1431   20-A'
  20   2.0000      -0.624912       -17.0047    1-A"
  21   2.0000      -0.613069       -16.6824   21-A'
  22   2.0000      -0.592819       -16.1314   22-A'
  23   2.0000      -0.537800       -14.6343    2-A"
  24   2.0000      -0.490485       -13.3468    3-A"
  25   2.0000      -0.443132       -12.0582   23-A'
  26   2.0000      -0.419270       -11.4089   24-A'
  27   2.0000      -0.382593       -10.4109    4-A"
  28   2.0000      -0.344616        -9.3775    5-A"
  29   0.0000       0.093103         2.5335    6-A"
  30   0.0000       0.121287         3.3004   25-A'
  31   0.0000       0.131644         3.5822   26-A'
  32   0.0000       0.162280         4.4159   27-A'
  33   0.0000       0.164596         4.4789    7-A"

MULLIKEN ATOMIC CHARGES
-----------------------
   0 H :    0.277117
   1 H :    0.131623
   2 H :    0.147736
   3 H :    0.247850
   4 H :    0.271446
   5 C :   -0.040278
   6 C :   -0.175928
   7 C :    0.116233
   8 C :    0.269948
   9 O :   -0.473874
  10 N :   -0.175268
  11 N :   -0.225896
  12 N :   -0.370709
Sum of atomic charges:    0.0000000

LOEWDIN ATOMIC CHARGES
----------------------
   0 H :    0.155355
   1 H :    0.085261
   2 H :    0.081189
   3 H :    0.131875
   4 H :    0.145953
   5 C :    0.131002
   6 C :   -0.209635
   7 C :    0.175680
   8 C :    0.234981
   9 O :   -0.373524
  10 N :   -0.293285
  11 N :   -0.121517
  12 N :   -0.143336

  Mayer bond orders larger than 0.100000
B(  0-H , 11-N ) :   0.8985 B(  1-H ,  5-C ) :   0.9674 B(  2-H ,  6-C ) :   0.9359
B(  3-H , 12-N ) :   0.9282 B(  4-H , 12-N ) :   0.9050 B(  5-C ,  6-C ) :   1.6931
B(  5-C , 11-N ) :   1.2224 B(  6-C ,  7-C ) :   1.1232 B(  7-C , 10-N ) :   1.6438
B(  7-C , 12-N ) :   1.1802 B(  8-C ,  9-O ) :   1.8923 B(  8-C , 10-N ) :   1.2533
B(  8-C , 11-N ) :   0.9838

FINAL SINGLE POINT ENERGY      -392.739882422162

DIPOLE MOMENT
-------------
                                X             Y             Z
Electronic contribution:     -3.00089       1.04904      -0.00000
Nuclear contribution   :      5.06353      -3.20965       0.00000
                        -----------------------------------------
Total Dipole Moment    :      2.06263      -2.16061      -0.00000
                        -----------------------------------------
Magnitude (a.u.)       :      2.98708
Magnitude (Debye)      :      7.59257

Rotational constants in cm-1:     0.128680     0.067098     0.044102
Rotational constants in MHz :  3857.734772  2011.552363  1322.142761

                             ****ORCA TERMINATED NORMALLY****
TOTAL RUN TIME: 0 days 0 hours 0 minutes 7 seconds 928 msec
