                         Program Version 5.0.0 -  RELEASE  -
|  1> ! RKS B3LYP/G def2-SVP NoRI miniprint pal8
|  2>
|  3> %TDDFT
|  4>     NRoots      18
|  5>     TDA         false
|  6>     printlevel  3
|  7>     DoSOC       True
|  8> end
|  9>
| 10> # benzeneDimer TDDFT
| 11>
| 12> *xyz 0 1
| 13>  C    0.275339664905    -0.458399102833    2.743143403700
| 14>  C    1.279006847437    0.228940885018    2.053971964849
| 15>  C    0.939622874510    1.231612429254    1.139882080053
| 16>  C    -0.402424351875    1.548739845978    0.916642984919
| 17>  C    -1.406698760230    0.863818487970    1.607817662361
| 18>  C    -1.068977646094    -0.140122820687    2.520286918876
| 19>  H    0.539603706561    -1.241898862747    3.454437267994
| 20>  H    2.326588004763    -0.022157300550    2.223964486000
| 21>  H    1.720832792185    1.755051800886    0.589301977320
| 22>  H    -0.666403863041    2.316697890287    0.190217604195
| 23>  H    -2.454419062639    1.106539982179    1.427829033755
| 24>  H    -1.852402130973    -0.676071740128    3.057547529767
| 25>  C    0.408637071405    -1.547138908805    -0.917226197790
| 26>  C    1.408439887136    -0.859383018412    -1.612070091004
| 27>  C    1.064503595865    0.142964356786    -2.523961075999
| 28>  C    -0.281557623713    0.456819421173    -2.742536095802
| 29>  C    -1.280735610329    -0.233330090254    -2.049663508775
| 30>  C    -0.935147882928    -1.234436127477    -1.136182768651
| 31>  H    0.677439446996    -2.313917010173    -0.191321675612
| 32>  H    2.457518043610    -1.098728344182    -1.435489418777
| 33>  H    1.844432727521    0.681106942624    -3.064104221734
| 34>  H    -0.550678756658    1.239051458125    -3.453403954344
| 35>  H    -2.329668169039    0.014352845763    -2.216299435382
| 36>  H    -1.712850805428    -1.760113019904    -0.582784469921
| 37> *
| 38>
| 39>                          ****END OF INPUT****

CARTESIAN COORDINATES (ANGSTROEM)
---------------------------------
  C      0.275340   -0.458399    2.743143
  C      1.279007    0.228941    2.053972
  C      0.939623    1.231612    1.139882
  C     -0.402424    1.548740    0.916643
  C     -1.406699    0.863818    1.607818
  C     -1.068978   -0.140123    2.520287
  H      0.539604   -1.241899    3.454437
  H      2.326588   -0.022157    2.223964
  H      1.720833    1.755052    0.589302
  H     -0.666404    2.316698    0.190218
  H     -2.454419    1.106540    1.427829
  H     -1.852402   -0.676072    3.057548
  C      0.408637   -1.547139   -0.917226
  C      1.408440   -0.859383   -1.612070
  C      1.064504    0.142964   -2.523961
  C     -0.281558    0.456819   -2.742536
  C     -1.280736   -0.233330   -2.049664
  C     -0.935148   -1.234436   -1.136183
  H      0.677439   -2.313917   -0.191322
  H      2.457518   -1.098728   -1.435489
  H      1.844433    0.681107   -3.064104
  H     -0.550679    1.239051   -3.453404
  H     -2.329668    0.014353   -2.216299
  H     -1.712851   -1.760113   -0.582784

ORBITAL ENERGIES
----------------

  NO   OCC          E(Eh)            E(eV)
   0   2.0000     -10.187876      -277.2262
   1   2.0000     -10.187861      -277.2258
   2   2.0000     -10.187514      -277.2163
   3   2.0000     -10.187503      -277.2161
   4   2.0000     -10.187114      -277.2055
   5   2.0000     -10.187102      -277.2051
   6   2.0000     -10.186972      -277.2016
   7   2.0000     -10.186965      -277.2014
   8   2.0000     -10.186054      -277.1766
   9   2.0000     -10.185990      -277.1749
  10   2.0000     -10.185493      -277.1613
  11   2.0000     -10.185486      -277.1612
  12   2.0000      -0.842912       -22.9368
  13   2.0000      -0.839623       -22.8473
  14   2.0000      -0.734908       -19.9979
  15   2.0000      -0.733399       -19.9568
  16   2.0000      -0.733257       -19.9529
  17   2.0000      -0.732115       -19.9219
  18   2.0000      -0.593460       -16.1489
  19   2.0000      -0.593251       -16.1432
  20   2.0000      -0.593220       -16.1423
  21   2.0000      -0.592959       -16.1352
  22   2.0000      -0.518737       -14.1155
  23   2.0000      -0.517573       -14.0839
  24   2.0000      -0.453737       -12.3468
  25   2.0000      -0.453513       -12.3407
  26   2.0000      -0.444497       -12.0954
  27   2.0000      -0.444126       -12.0853
  28   2.0000      -0.419225       -11.4077
  29   2.0000      -0.418483       -11.3875
  30   2.0000      -0.418350       -11.3839
  31   2.0000      -0.417867       -11.3707
  32   2.0000      -0.375912       -10.2291
  33   2.0000      -0.352422        -9.5899
  34   2.0000      -0.342740        -9.3264
  35   2.0000      -0.342702        -9.3254
  36   2.0000      -0.342564        -9.3216
  37   2.0000      -0.342458        -9.3188
  38   2.0000      -0.261489        -7.1155
  39   2.0000      -0.250876        -6.8267
  40   2.0000      -0.250862        -6.8263
  41   2.0000      -0.242202        -6.5906
  42   0.0000      -0.006795        -0.1849
  43   0.0000      -0.005242        -0.1426
  44   0.0000      -0.004645        -0.1264
  45   0.0000      -0.003449        -0.0939
  46   0.0000       0.051238         1.3942

Total SCF time: 0 days 0 hours 0 min 13 sec

---------------------------------------------------------------------------------------------------------------------
                    SOC CORRECTED ABSORPTION SPECTRUM VIA TRANSITION ELECTRIC DIPOLE MOMENTS*
---------------------------------------------------------------------------------------------------------------------
   State    Energy  Wavelength   fosc         T2              TX                    TY                    TZ
            (cm-1)    (nm)                  (au**2)          (au)                  (au)                  (au)
---------------------------------------------------------------------------------------------------------------------
   0   1   30216.6    330.9   0.000000000   0.00000 ( -0.00000,  0.00000) ( -0.00000,  0.00000) (  0.00000, -0.00000)
   0   2   30216.6    330.9   0.000000000   0.00000 ( -0.00000, -0.00000) (  0.00000,  0.00000) (  0.00000,  0.00000)
   0   3   30216.6    330.9   0.000000000   0.00000 (  0.00000,  0.00000) ( -0.00000, -0.00000) ( -0.00000, -0.00000)
   0   4   30286.4    330.2   0.000000000   0.00000 ( -0.00000, -0.00000) (  0.00000,  0.00000) ( -0.00000, -0.00000)
   0   5   30286.4    330.2   0.000000000   0.00000 (  0.00000, -0.00000) ( -0.00000,  0.00000) (  0.00000, -0.00000)
   0   6   30286.4    330.2   0.000000000   0.00000 (  0.00000,  0.00000) ( -0.00000, -0.00000) (  0.00000,  0.00000)
   0   7   37892.4    263.9   0.000000000   0.00000 ( -0.00000, -0.00000) (  0.00000,  0.00000) ( -0.00000, -0.00000)
   0   8   37892.4    263.9   0.000000000   0.00000 ( -0.00000, -0.00000) ( -0.00000, -0.00000) ( -0.00000, -0.00000)
   0   9   37892.4    263.9   0.000000000   0.00000 (  0.00000,  0.00000) (  0.00000,  0.00000) ( -0.00000, -0.00000)
   0  10   37936.3    263.6   0.000000000   0.00000 (  0.00000, -0.00000) (  0.00002, -0.00002) ( -0.00001,  0.00001)
   0  11   37936.3    263.6   0.000000000   0.00000 ( -0.00000, -0.00000) ( -0.00000, -0.00000) (  0.00000,  0.00000)
   0  12   37936.3    263.6   0.000000000   0.00000 ( -0.00000,  0.00000) ( -0.00000,  0.00000) (  0.00001, -0.00000)
   0  13   38019.5    263.0   0.000000000   0.00000 (  0.00000,  0.00000) (  0.00000,  0.00000) ( -0.00001, -0.00000)
   0  14   38019.5    263.0   0.000000000   0.00000 ( -0.00000, -0.00000) ( -0.00003, -0.00001) (  0.00001,  0.00001)
   0  15   38019.5    263.0   0.000000000   0.00000 (  0.00000, -0.00000) (  0.00000, -0.00000) ( -0.00000,  0.00000)
   0  16   38031.0    262.9   0.000000000   0.00000 ( -0.00000, -0.00000) (  0.00000,  0.00000) (  0.00000,  0.00000)
   0  17   38031.0    262.9   0.000000000   0.00000 (  0.00000, -0.00000) (  0.00000, -0.00000) ( -0.00000,  0.00000)
   0  18   38031.0    262.9   0.000000000   0.00000 ( -0.00000,  0.00000) (  0.00000, -0.00000) (  0.00000, -0.00000)
   0  19   41144.4    243.0   0.000000000   0.00000 (  0.00000, -0.00000) ( -0.00000,  0.00000) ( -0.00000,  0.00000)
   0  20   41144.4    243.0   0.000000000   0.00000 ( -0.00000,  0.00000) ( -0.00000,  0.00000) (  0.00000, -0.00000)
   0  21   41144.4    243.0   0.000000000   0.00000 ( -0.00000,  0.00000) ( -0.00000,  0.00000) (  0.00000, -0.00000)
   0  22   41226.3    242.6   0.000000000   0.00000 (  0.00000,  0.00000) (  0.00000,  0.00000) (  0.00000,  0.00000)
   0  23   41226.3    242.6   0.000000000   0.00000 ( -0.00000,  0.00000) (  0.00000, -0.00000) (  0.00000, -0.00000)
   0  24   41226.3    242.6   0.000000000   0.00000 (  0.00000, -0.00000) ( -0.00000,  0.00001) ( -0.00000,  0.00001)
   0  25   43527.9    229.7   0.000000010   0.00000 ( -0.00023, -0.00005) ( -0.00007, -0.00001) ( -0.00011, -0.00002)
   0  26   43669.1    229.0   0.002640228   0.01990 ( -0.01668,  0.00067) (  0.02165, -0.00087) (  0.13830, -0.00553)
   0  27   47403.9    211.0   0.000002246   0.00002 ( -0.00029, -0.00039) (  0.00021,  0.00027) ( -0.00234, -0.00313)
   0  28   47562.6    210.2   0.012034969   0.08330 ( -0.13639, -0.13336) (  0.02431,  0.02376) ( -0.15295, -0.14955)
   0  29   47737.9    209.5   0.000000000   0.00000 (  0.00000, -0.00002) (  0.00000, -0.00001) ( -0.00000,  0.00000)
   0  30   47737.9    209.5   0.000000001   0.00000 ( -0.00000,  0.00000) ( -0.00001,  0.00000) (  0.00007, -0.00003)
   0  31   47737.9    209.5   0.000000001   0.00000 (  0.00000, -0.00000) ( -0.00004,  0.00001) ( -0.00006,  0.00002)
   0  32   47922.1    208.7   0.000000001   0.00000 ( -0.00004, -0.00004) (  0.00004,  0.00005) ( -0.00003, -0.00004)
   0  33   47922.1    208.7   0.000000000   0.00000 ( -0.00000,  0.00001) (  0.00000, -0.00002) ( -0.00000,  0.00002)
   0  34   47922.1    208.7   0.000000000   0.00000 (  0.00000, -0.00001) ( -0.00000,  0.00000) (  0.00001, -0.00004)
   0  35   48037.5    208.2   0.000000000   0.00000 ( -0.00000,  0.00000) (  0.00000, -0.00000) ( -0.00000,  0.00000)
   0  36   48037.5    208.2   0.000000000   0.00000 ( -0.00000, -0.00000) (  0.00000,  0.00000) ( -0.00000, -0.00000)
   0  37   48037.5    208.2   0.000000000   0.00000 (  0.00000,  0.00000) ( -0.00000, -0.00000) (  0.00000,  0.00000)
   0  38   48119.0    207.8   0.000005718   0.00004 ( -0.00099, -0.00006) (  0.00616,  0.00037) ( -0.00030, -0.00002)
   0  39   48157.3    207.7   0.002759749   0.01887 (  0.00919,  0.00021) ( -0.13658, -0.00312) (  0.01082,  0.00025)
   0  40   48179.7    207.6   0.000000000   0.00000 ( -0.00000, -0.00000) (  0.00000,  0.00000) (  0.00000,  0.00000)
   0  41   48179.7    207.6   0.000000000   0.00000 ( -0.00000,  0.00000) (  0.00000, -0.00000) ( -0.00000,  0.00000)
   0  42   48179.7    207.6   0.000000000   0.00000 ( -0.00000, -0.00000) ( -0.00002, -0.00002) (  0.00000,  0.00000)
   0  43   48216.4    207.4   0.000003454   0.00002 (  0.00040,  0.00157) ( -0.00085, -0.00330) (  0.00076,  0.00296)
   0  44   48290.0    207.1   0.000634142   0.00432 (  0.00079, -0.02604) ( -0.00053,  0.01741) (  0.00175, -0.05778)
   0  45   48689.5    205.4   0.000000000   0.00000 (  0.00000, -0.00000) (  0.00001, -0.00000) (  0.00001, -0.00001)
   0  46   48689.5    205.4   0.000000000   0.00000 (  0.00000,  0.00000) ( -0.00000, -0.00000) ( -0.00001, -0.00004)
   0  47   48689.5    205.4   0.000000020   0.00000 ( -0.00004, -0.00006) (  0.00002,  0.00003) (  0.00019,  0.00030)
   0  48   48704.1    205.3   0.000004760   0.00003 (  0.00307,  0.00031) ( -0.00078, -0.00008) ( -0.00467, -0.00047)
   0  49   48802.3    204.9   0.000000000   0.00000 ( -0.00000,  0.00000) (  0.00000, -0.00000) (  0.00000, -0.00000)
   0  50   48802.3    204.9   0.000000000   0.00000 (  0.00000,  0.00000) ( -0.00000, -0.00000) ( -0.00000, -0.00000)
   0  51   48802.3    204.9   0.000000000   0.00000 ( -0.00000,  0.00000) (  0.00000, -0.00000) (  0.00000, -0.00000)
   0  52   48891.1    204.5   0.000000065   0.00000 (  0.00009, -0.00007) ( -0.00004,  0.00003) ( -0.00052,  0.00039)
   0  53   48891.1    204.5   0.000000000   0.00000 ( -0.00001,  0.00001) ( -0.00000,  0.00000) (  0.00000, -0.00000)
   0  54   48891.1    204.5   0.000000000   0.00000 ( -0.00000,  0.00002) (  0.00000, -0.00001) (  0.00001, -0.00005)
   0  55   49003.1    204.1   0.068541870   0.46048 (  0.11958,  0.01220) ( -0.04862, -0.00496) ( -0.66262, -0.06761)
   0  56   49083.3    203.7   0.000000000   0.00000 ( -0.00000, -0.00000) (  0.00000,  0.00000) (  0.00000,  0.00000)
   0  57   49083.3    203.7   0.000000000   0.00000 ( -0.00000, -0.00000) (  0.00000,  0.00000) (  0.00000,  0.00001)
   0  58   49083.3    203.7   0.000000000   0.00000 ( -0.00000, -0.00000) (  0.00000,  0.00000) (  0.00000,  0.00001)
   0  59   50781.4    196.9   0.010073608   0.06531 ( -0.07431,  0.00689) (  0.01819, -0.00169) ( -0.24269,  0.02251)
   0  60   50801.7    196.8   0.000000284   0.00000 (  0.00074, -0.00085) ( -0.00029,  0.00034) (  0.00040, -0.00046)
   0  61   56291.9    177.6   0.000000005   0.00000 (  0.00000, -0.00001) (  0.00003, -0.00013) (  0.00002, -0.00010)
   0  62   56655.3    176.5   0.000000000   0.00000 (  0.00000,  0.00000) (  0.00000,  0.00000) ( -0.00000, -0.00000)
   0  63   56655.3    176.5   0.000000000   0.00000 ( -0.00000, -0.00000) ( -0.00000, -0.00000) (  0.00000,  0.00000)
   0  64   56655.3    176.5   0.000000000   0.00000 (  0.00000,  0.00000) (  0.00000,  0.00000) ( -0.00000, -0.00000)
   0  65   57306.1    174.5   0.000000295   0.00000 ( -0.00031,  0.00003) ( -0.00116,  0.00009) ( -0.00050,  0.00004)
   0  66   57597.2    173.6   0.000000026   0.00000 (  0.00000,  0.00026) ( -0.00000, -0.00023) (  0.00000,  0.00018)
   0  67   58236.3    171.7   0.000000013   0.00000 (  0.00005,  0.00001) (  0.00020,  0.00002) ( -0.00018, -0.00002)
   0  68   58236.3    171.7   0.000000000   0.00000 ( -0.00000,  0.00000) ( -0.00000,  0.00001) (  0.00000, -0.00000)
   0  69   58236.3    171.7   0.000000000   0.00000 (  0.00000, -0.00000) (  0.00000, -0.00000) ( -0.00000,  0.00000)
   0  70   59038.9    169.4   0.208740948   1.16398 (  0.21551,  0.02705) (  0.69382,  0.08710) ( -0.78619, -0.09869)
   0  71   59161.0    169.0   0.000007061   0.00004 ( -0.00054, -0.00055) ( -0.00282, -0.00288) (  0.00332,  0.00338)
   0  72   59409.9    168.3   0.859743120   4.76415 (  0.40305,  0.01916) (  1.53959,  0.07319) ( -1.49017, -0.07084)

FINAL SINGLE POINT ENERGY      -464.028267183416

DIPOLE MOMENT
-------------
                                X             Y             Z
Electronic contribution:      0.00003       0.00021       0.00029
Nuclear contribution   :     -0.00001      -0.00015      -0.00018
                        -----------------------------------------
Total Dipole Moment    :      0.00001       0.00006       0.00011
                        -----------------------------------------
Magnitude (a.u.)       :      0.00013
Magnitude (Debye)      :      0.00032

Rotational constants in cm-1:     0.054384     0.022519     0.021201
Rotational constants in MHz :  1630.400814   675.100582   635.582701

                             ****ORCA TERMINATED NORMALLY****
TOTAL RUN TIME: 0 days 0 hours 14 minutes 1 seconds 241 msec
