                         Program Version 5.0.0 -  RELEASE  -
|  1> ! RHF def2-SVP pal8
|  2>
|  3> %cis
|  4>     NRoots      18
|  5>     printlevel  3
|  6> end
|  7>
|  8> # BenzeneDimer CIS
|  9>
| 10> *xyz 0 1
| 11>  C    0.275339664905    -0.458399102833    2.743143403700
| 12>  C    1.279006847437    0.228940885018    2.053971964849
| 13>  C    0.939622874510    1.231612429254    1.139882080053
| 14>  C    -0.402424351875    1.548739845978    0.916642984919
| 15>  C    -1.406698760230    0.863818487970    1.607817662361
| 16>  C    -1.068977646094    -0.140122820687    2.520286918876
| 17>  H    0.539603706561    -1.241898862747    3.454437267994
| 18>  H    2.326588004763    -0.022157300550    2.223964486000
| 19>  H    1.720832792185    1.755051800886    0.589301977320
| 20>  H    -0.666403863041    2.316697890287    0.190217604195
| 21>  H    -2.454419062639    1.106539982179    1.427829033755
| 22>  H    -1.852402130973    -0.676071740128    3.057547529767
| 23>  C    0.408637071405    -1.547138908805    -0.917226197790
| 24>  C    1.408439887136    -0.859383018412    -1.612070091004
| 25>  C    1.064503595865    0.142964356786    -2.523961075999
| 26>  C    -0.281557623713    0.456819421173    -2.742536095802
| 27>  C    -1.280735610329    -0.233330090254    -2.049663508775
| 28>  C    -0.935147882928    -1.234436127477    -1.136182768651
| 29>  H    0.677439446996    -2.313917010173    -0.191321675612
| 30>  H    2.457518043610    -1.098728344182    -1.435489418777
| 31>  H    1.844432727521    0.681106942624    -3.064104221734
| 32>  H    -0.550678756658    1.239051458125    -3.453403954344
| 33>  H    -2.329668169039    0.014352845763    -2.216299435382
| 34>  H    -1.712850805428    -1.760113019904    -0.582784469921
| 35> *
| 36>
| 37>                          ****END OF INPUT****

CARTESIAN COORDINATES (ANGSTROEM)
---------------------------------
  C      0.275340   -0.458399    2.743143
  C      1.279007    0.228941    2.053972
  C      0.939623    1.231612    1.139882
  C     -0.402424    1.548740    0.916643
  C     -1.406699    0.863818    1.607818
  C     -1.068978   -0.140123    2.520287
  H      0.539604   -1.241899    3.454437
  H      2.326588   -0.022157    2.223964
  H      1.720833    1.755052    0.589302
  H     -0.666404    2.316698    0.190218
  H     -2.454419    1.106540    1.427829
  H     -1.852402   -0.676072    3.057548
  C      0.408637   -1.547139   -0.917226
  C      1.408440   -0.859383   -1.612070
  C      1.064504    0.142964   -2.523961
  C     -0.281558    0.456819   -2.742536
  C     -1.280736   -0.233330   -2.049664
  C     -0.935148   -1.234436   -1.136183
  H      0.677439   -2.313917   -0.191322
  H      2.457518   -1.098728   -1.435489
  H      1.844433    0.681107   -3.064104
  H     -0.550679    1.239051   -3.453404
  H     -2.329668    0.014353   -2.216299
  H     -1.712851   -1.760113   -0.582784

 Total Charge           Charge          ....    0
 Multiplicity           Mult            ....    1
 Number of Electrons    NEL             ....   84
 Basis Dimension        Dim             ....  228

ORBITAL ENERGIES
----------------

  NO   OCC          E(Eh)            E(eV)
   0   2.0000     -11.236122      -305.7504
   1   2.0000     -11.236107      -305.7500
   2   2.0000     -11.235280      -305.7275
   3   2.0000     -11.235267      -305.7272
   4   2.0000     -11.234633      -305.7099
   5   2.0000     -11.234582      -305.7085
   6   2.0000     -11.234186      -305.6978
   7   2.0000     -11.234160      -305.6970
   8   2.0000     -11.233362      -305.6753
   9   2.0000     -11.233335      -305.6746
  10   2.0000     -11.232270      -305.6456
  11   2.0000     -11.232262      -305.6454
  12   2.0000      -1.134186       -30.8628
  13   2.0000      -1.130256       -30.7558
  14   2.0000      -0.998468       -27.1697
  15   2.0000      -0.996703       -27.1217
  16   2.0000      -0.996562       -27.1178
  17   2.0000      -0.995180       -27.0802
  18   2.0000      -0.810180       -22.0461
  19   2.0000      -0.810005       -22.0413
  20   2.0000      -0.809931       -22.0393
  21   2.0000      -0.809656       -22.0319
  22   2.0000      -0.702138       -19.1062
  23   2.0000      -0.700791       -19.0695
  24   2.0000      -0.631083       -17.1727
  25   2.0000      -0.630801       -17.1650
  26   2.0000      -0.616284       -16.7700
  27   2.0000      -0.615810       -16.7570
  28   2.0000      -0.583237       -15.8707
  29   2.0000      -0.582513       -15.8510
  30   2.0000      -0.582272       -15.8444
  31   2.0000      -0.581762       -15.8305
  32   2.0000      -0.511959       -13.9311
  33   2.0000      -0.490709       -13.3529
  34   2.0000      -0.490636       -13.3509
  35   2.0000      -0.490566       -13.3490
  36   2.0000      -0.490407       -13.3447
  37   2.0000      -0.480091       -13.0640
  38   2.0000      -0.345415        -9.3992
  39   2.0000      -0.330696        -8.9987
  40   2.0000      -0.330502        -8.9934
  41   2.0000      -0.318507        -8.6670
  42   0.0000       0.134080         3.6485
  43   0.0000       0.137028         3.7287
  44   0.0000       0.137202         3.7334
  45   0.0000       0.139285         3.7901
  46   0.0000       0.172471         4.6932

MULLIKEN ATOMIC CHARGES
-----------------------
   0 C :   -0.046875
   1 C :   -0.051102
   2 C :   -0.021706
   3 C :   -0.024070
   4 C :   -0.043000
   5 C :   -0.049241
   6 H :    0.039763
   7 H :    0.038377
   8 H :    0.039430
   9 H :    0.040772
  10 H :    0.038102
  11 H :    0.039554
  12 C :   -0.024042
  13 C :   -0.043086
  14 C :   -0.049193
  15 C :   -0.046948
  16 C :   -0.050982
  17 C :   -0.021714
  18 H :    0.040742
  19 H :    0.038098
  20 H :    0.039553
  21 H :    0.039760
  22 H :    0.038362
  23 H :    0.039446
Sum of atomic charges:   -0.0000000

LOEWDIN ATOMIC CHARGES
----------------------
   0 C :   -0.031377
   1 C :   -0.028363
   2 C :   -0.017066
   3 C :   -0.016539
   4 C :   -0.024799
   5 C :   -0.032176
   6 H :    0.024978
   7 H :    0.024540
   8 H :    0.025418
   9 H :    0.025995
  10 H :    0.024547
  11 H :    0.024867
  12 C :   -0.016544
  13 C :   -0.024869
  14 C :   -0.032179
  15 C :   -0.031386
  16 C :   -0.028326
  17 C :   -0.017043
  18 H :    0.025978
  19 H :    0.024544
  20 H :    0.024870
  21 H :    0.024974
  22 H :    0.024536
  23 H :    0.025421

  Mayer bond orders larger than 0.100000
B(  0-C ,  1-C ) :   1.4186 B(  0-C ,  5-C ) :   1.4104 B(  0-C ,  6-H ) :   0.9998
B(  1-C ,  2-C ) :   1.4095 B(  1-C ,  7-H ) :   0.9999 B(  2-C ,  3-C ) :   1.4258
B(  2-C ,  8-H ) :   0.9985 B(  3-C ,  4-C ) :   1.4109 B(  3-C ,  9-H ) :   0.9980
B(  4-C ,  5-C ) :   1.4180 B(  4-C , 10-H ) :   0.9999 B(  5-C , 11-H ) :   0.9998
B( 12-C , 13-C ) :   1.4108 B( 12-C , 17-C ) :   1.4258 B( 12-C , 18-H ) :   0.9980
B( 13-C , 14-C ) :   1.4181 B( 13-C , 19-H ) :   0.9999 B( 14-C , 15-C ) :   1.4104
B( 14-C , 20-H ) :   0.9998 B( 15-C , 16-C ) :   1.4186 B( 15-C , 21-H ) :   0.9998
B( 16-C , 17-C ) :   1.4095 B( 16-C , 22-H ) :   0.9999 B( 17-C , 23-H ) :   0.9985

-----------------------------------------------------------------------------
         ABSORPTION SPECTRUM VIA TRANSITION ELECTRIC DIPOLE MOMENTS
-----------------------------------------------------------------------------
State   Energy    Wavelength  fosc         T2        TX        TY        TZ
        (cm-1)      (nm)                 (au**2)    (au)      (au)      (au)
-----------------------------------------------------------------------------
   1   49736.2    201.1   0.000122030   0.00081   0.00509  -0.00982  -0.02618
   2   49779.3    200.9   0.000000016   0.00000  -0.00007  -0.00012  -0.00029
   3   51075.9    195.8   0.000891914   0.00575   0.06401  -0.01613   0.03729
   4   51148.0    195.5   0.000000038   0.00000  -0.00042  -0.00015   0.00020
   5   63663.3    157.1   0.000000055   0.00000   0.00030   0.00021   0.00038
   6   64607.7    154.8   0.000000495   0.00000   0.00040   0.00097   0.00119
   7   67964.7    147.1   1.883409147   9.12298  -0.33538  -1.98987   2.24742
   8   68278.1    146.5   0.000001848   0.00001  -0.00188  -0.00142   0.00183
   9   69332.6    144.2   1.463140418   6.94743   2.61195  -0.32602   0.13736
  10   69433.4    144.0   0.000047400   0.00022  -0.01080  -0.00684   0.00782
  11   69443.2    144.0   0.083454260   0.39563  -0.37686  -0.33613   0.37500
  12   69892.1    143.1   0.337350034   1.58902   1.25268  -0.13448   0.04145
  13   72767.1    137.4   0.020350813   0.09207  -0.05978   0.09244  -0.28276
  14   72960.4    137.1   0.000015339   0.00007   0.00142  -0.00242   0.00783
  15   73192.3    136.6   0.075374680   0.33903  -0.02195  -0.06930   0.57771
  16   73243.1    136.5   0.000432645   0.00194   0.00268   0.00437  -0.04380
  17   73927.4    135.3   0.014552186   0.06480   0.08171  -0.10823  -0.21544
  18   74564.2    134.1   0.000005261   0.00002   0.00107   0.00469  -0.00032

FINAL SINGLE POINT ENERGY      -460.838219330376

DIPOLE MOMENT
-------------
                                X             Y             Z
Electronic contribution:      0.00003       0.00019       0.00026
Nuclear contribution   :     -0.00001      -0.00015      -0.00018
                        -----------------------------------------
Total Dipole Moment    :      0.00002       0.00005       0.00008
                        -----------------------------------------
Magnitude (a.u.)       :      0.00010
Magnitude (Debye)      :      0.00024

Rotational constants in cm-1:     0.054384     0.022519     0.021201
Rotational constants in MHz :  1630.400814   675.100582   635.582701

                             ****ORCA TERMINATED NORMALLY****
TOTAL RUN TIME: 0 days 0 hours 2 minutes 39 seconds 807 msec
