                         Program Version 5.0.0 -  RELEASE  -
|  1> ! BLYP cc-pVTZ NoRI pal8
|  2>
|  3> *xyz 0 1
|  4>   C   -0.84533195991773      0.95631204799741      0.86695688758137
|  5>   C   0.46296917953950      0.89055132107898      0.41153738968092
|  6>   C   1.06498249109929      2.05041746604826     -0.04872626223504
|  7>   C   0.38682375533153      3.25825741761093     -0.05957630313133
|  8>   C   -0.92916629483352      3.32496446678289      0.39786117470048
|  9>   C   -1.53691904595740      2.15806885302784      0.86178357772044
| 10>   H   -1.33177779310003      0.05786162666320      1.22288286662819
| 11>   H   1.00911644617855     -0.04137764481499      0.41174217012473
| 12>   H   0.89340943637666      4.14652768979640     -0.40661874558071
| 13>   H   -2.56260459262502      2.18503471734340      1.20271069002731
| 14>   C   -1.66709331376272      4.62322731007777      0.38662794093699
| 15>   C   -2.42161858132883      5.01473379007752      1.49250102782185
| 16>   C   -1.61923201631221      5.46623475990715     -0.72389685760276
| 17>   C   -3.10577169358506      6.21908872396761      1.47479389475736
| 18>   H   -2.46369194088787      4.39499072034369      2.37581764658229
| 19>   C   -2.30901947987771      6.66904435935388     -0.72694800403690
| 20>   H   -1.05555752795261      5.17208444276276     -1.59838613456934
| 21>   C   -3.05941590604282      7.05751618377553      0.37275066068088
| 22>   H   -2.26865845182014      7.30948735218955     -1.59800079723894
| 23>   H   -3.60007805771479      7.99261925989212      0.37887337421372
| 24>   Cl  2.70997882629083      1.99495162290832     -0.61716762133114
| 25>   Cl  -4.03387825909787      6.68923511320967      2.87110846426962
| 26> **                         ****END OF INPUT****

CARTESIAN COORDINATES (ANGSTROEM)
---------------------------------
  C     -0.845332    0.956312    0.866957
  C      0.462969    0.890551    0.411537
  C      1.064982    2.050417   -0.048726
  C      0.386824    3.258257   -0.059576
  C     -0.929166    3.324964    0.397861
  C     -1.536919    2.158069    0.861784
  H     -1.331778    0.057862    1.222883
  H      1.009116   -0.041378    0.411742
  H      0.893409    4.146528   -0.406619
  H     -2.562605    2.185035    1.202711
  C     -1.667093    4.623227    0.386628
  C     -2.421619    5.014734    1.492501
  C     -1.619232    5.466235   -0.723897
  C     -3.105772    6.219089    1.474794
  H     -2.463692    4.394991    2.375818
  C     -2.309019    6.669044   -0.726948
  H     -1.055558    5.172084   -1.598386
  C     -3.059416    7.057516    0.372751
  H     -2.268658    7.309487   -1.598001
  H     -3.600078    7.992619    0.378873
  Cl     2.709979    1.994952   -0.617168
  Cl    -4.033878    6.689235    2.871108

 Total Charge           Charge          ....    0
 Multiplicity           Mult            ....    1
 Number of Electrons    NEL             ....  114
 Basis Dimension        Dim             ....  540

ORBITAL ENERGIES
----------------

  NO   OCC          E(Eh)            E(eV)
   0   2.0000    -100.768302     -2742.0449
   1   2.0000    -100.768301     -2742.0449
   2   2.0000      -9.975379      -271.4439
   3   2.0000      -9.975376      -271.4438
   4   2.0000      -9.938251      -270.4336
   5   2.0000      -9.938066      -270.4285
   6   2.0000      -9.926214      -270.1060
   7   2.0000      -9.926211      -270.1059
   8   2.0000      -9.926044      -270.1014
   9   2.0000      -9.926041      -270.1013
  10   2.0000      -9.925571      -270.0885
  11   2.0000      -9.925569      -270.0885
  12   2.0000      -9.921917      -269.9891
  13   2.0000      -9.921913      -269.9890
  14   2.0000      -9.184161      -249.9137
  15   2.0000      -9.184160      -249.9137
  16   2.0000      -7.017298      -190.9504
  17   2.0000      -7.017294      -190.9503
  18   2.0000      -7.007216      -190.6760
  19   2.0000      -7.007215      -190.6760
  20   2.0000      -7.006594      -190.6591
  21   2.0000      -7.006594      -190.6591
  22   2.0000      -0.819374       -22.2963
  23   2.0000      -0.812788       -22.1171
  24   2.0000      -0.775343       -21.0981
  25   2.0000      -0.757165       -20.6035
  26   2.0000      -0.710442       -19.3321
  27   2.0000      -0.679632       -18.4937
  28   2.0000      -0.665194       -18.1009
  29   2.0000      -0.659132       -17.9359
  30   2.0000      -0.579143       -15.7593
  31   2.0000      -0.562193       -15.2980
  32   2.0000      -0.539485       -14.6801
  33   2.0000      -0.525682       -14.3045
  34   2.0000      -0.483013       -13.1435
  35   2.0000      -0.459957       -12.5161
  36   2.0000      -0.437736       -11.9114
  37   2.0000      -0.425755       -11.5854
  38   2.0000      -0.415855       -11.3160
  39   2.0000      -0.404662       -11.0114
  40   2.0000      -0.390789       -10.6339
  41   2.0000      -0.388377       -10.5683
  42   2.0000      -0.386347       -10.5130
  43   2.0000      -0.361920        -9.8483
  44   2.0000      -0.354733        -9.6528
  45   2.0000      -0.341701        -9.2982
  46   2.0000      -0.329805        -8.9745
  47   2.0000      -0.319015        -8.6808
  48   2.0000      -0.314345        -8.5538
  49   2.0000      -0.303370        -8.2551
  50   2.0000      -0.292843        -7.9687
  51   2.0000      -0.272787        -7.4229
  52   2.0000      -0.270195        -7.3524
  53   2.0000      -0.254482        -6.9248
  54   2.0000      -0.229204        -6.2370
  55   2.0000      -0.223501        -6.0818
  56   2.0000      -0.214756        -5.8438
  57   0.0000      -0.069738        -1.8977
  58   0.0000      -0.050165        -1.3651
  59   0.0000      -0.049684        -1.3520
  60   0.0000      -0.026602        -0.7239
  61   0.0000      -0.007305        -0.1988

MULLIKEN ATOMIC CHARGES
-----------------------
   0 C :   -0.075635
   1 C :   -0.108917
   2 C :    0.080679
   3 C :   -0.131343
   4 C :    0.073111
   5 C :   -0.115251
   6 H :    0.093612
   7 H :    0.101851
   8 H :    0.100859
   9 H :    0.094356
  10 C :    0.073711
  11 C :   -0.131143
  12 C :   -0.115515
  13 C :    0.080372
  14 H :    0.100849
  15 C :   -0.075959
  16 H :    0.094250
  17 C :   -0.108656
  18 H :    0.093571
  19 H :    0.102000
  20 Cl:   -0.113409
  21 Cl:   -0.113392
Sum of atomic charges:    0.0000000

LOEWDIN ATOMIC CHARGES
----------------------
   0 C :    0.040135
   1 C :    0.016494
   2 C :   -0.295866
   3 C :    0.029423
   4 C :   -0.031495
   5 C :    0.047224
   6 H :   -0.025434
   7 H :   -0.028580
   8 H :   -0.027817
   9 H :   -0.027465
  10 C :   -0.031478
  11 C :    0.029419
  12 C :    0.047221
  13 C :   -0.295900
  14 H :   -0.027814
  15 C :    0.040128
  16 H :   -0.027472
  17 C :    0.016497
  18 H :   -0.025434
  19 H :   -0.028577
  20 Cl:    0.303379
  21 Cl:    0.303411

  Mayer bond orders larger than 0.100000
B(  0-C ,  1-C ) :   1.3462 B(  0-C ,  5-C ) :   1.3622 B(  0-C ,  6-H ) :   0.9769
B(  1-C ,  2-C ) :   1.3306 B(  1-C ,  7-H ) :   0.9714 B(  2-C ,  3-C ) :   1.3213
B(  2-C , 20-Cl) :   1.0053 B(  3-C ,  4-C ) :   1.3112 B(  3-C ,  8-H ) :   0.9706
B(  4-C ,  5-C ) :   1.3246 B(  4-C , 10-C ) :   0.9997 B(  5-C ,  9-H ) :   0.9733
B( 10-C , 11-C ) :   1.3109 B( 10-C , 12-C ) :   1.3245 B( 11-C , 13-C ) :   1.3216
B( 11-C , 14-H ) :   0.9706 B( 12-C , 15-C ) :   1.3624 B( 12-C , 16-H ) :   0.9733
B( 13-C , 17-C ) :   1.3306 B( 13-C , 21-Cl) :   1.0053 B( 15-C , 17-C ) :   1.3461
B( 15-C , 18-H ) :   0.9769 B( 17-C , 19-H ) :   0.9714

FINAL SINGLE POINT ENERGY     -1382.493627440163

DIPOLE MOMENT
-------------
                                X             Y             Z
Electronic contribution:      3.33467       1.92901       3.85135
Nuclear contribution   :     -3.59384      -2.07894      -4.15061
                        -----------------------------------------
Total Dipole Moment    :     -0.25917      -0.14992      -0.29925
                        -----------------------------------------
Magnitude (a.u.)       :      0.42332
Magnitude (Debye)      :      1.07599

Rotational constants in cm-1:     0.042977     0.007687     0.006936
Rotational constants in MHz :  1288.420402   230.438753   207.945622

                             ****ORCA TERMINATED NORMALLY****
TOTAL RUN TIME: 0 days 0 hours 4 minutes 14 seconds 54 msec
