                         Program Version 5.0.0 -  RELEASE  -
|  1> ! RHF cc-pvdz pal8 NoUseSym
|  2> ! MOread
|  3> %moinp "trans-1,3-bivinyl-opt.gbw"
|  4>
|  5> *xyz 0 1
|  6>  C   -6.64118154871840     -1.62152199820221     -0.00000009697356
|  7>  H   -6.14278421708044     -2.59598105665497     -0.00000014220472
|  8>  H   -7.73333554424968     -1.61977238029341     -0.00000042278070
|  9>  C   -5.93549956067656     -0.47904328673011      0.00000030766916
| 10>  H   -6.46384951769643      0.48219250457623      0.00000027918139
| 11>  C   -4.47901443536966     -0.41544209462766      0.00000033271928
| 12>  H   -3.95066484182954     -1.37667808135024      0.00000039582290
| 13>  C   -3.77333222954333      0.72703646535930     -0.00000006376917
| 14>  H   -4.27172926240940      1.70149564387711     -0.00000005020219
| 15>  H   -2.68117824242655      0.72528655404596     -0.00000053946240
| 16> *
| 17>
| 18>
| 19>                          ****END OF INPUT****

CARTESIAN COORDINATES (ANGSTROEM)
---------------------------------
  C     -6.641182   -1.621522   -0.000000
  H     -6.142784   -2.595981   -0.000000
  H     -7.733336   -1.619772   -0.000000
  C     -5.935500   -0.479043    0.000000
  H     -6.463850    0.482193    0.000000
  C     -4.479014   -0.415442    0.000000
  H     -3.950665   -1.376678    0.000000
  C     -3.773332    0.727036   -0.000000
  H     -4.271729    1.701496   -0.000000
  H     -2.681178    0.725287   -0.000001

 Total Charge           Charge          ....    0
 Multiplicity           Mult            ....    1
 Number of Electrons    NEL             ....   30
 Basis Dimension        Dim             ....   86

ORBITAL ENERGIES
----------------

  NO   OCC          E(Eh)            E(eV)
   0   2.0000     -11.245227      -305.9982
   1   2.0000     -11.244437      -305.9767
   2   2.0000     -11.238228      -305.8077
   3   2.0000     -11.238215      -305.8074
   4   2.0000      -1.088870       -29.6297
   5   2.0000      -0.996797       -27.1242
   6   2.0000      -0.823394       -22.4057
   7   2.0000      -0.748572       -20.3697
   8   2.0000      -0.639064       -17.3898
   9   2.0000      -0.629285       -17.1237
  10   2.0000      -0.553341       -15.0572
  11   2.0000      -0.539050       -14.6683
  12   2.0000      -0.489362       -13.3162
  13   2.0000      -0.441270       -12.0076
  14   2.0000      -0.320420        -8.7191
  15   0.0000       0.117996         3.2108
  16   0.0000       0.201566         5.4849
  17   0.0000       0.206028         5.6063
  18   0.0000       0.214047         5.8245
  19   0.0000       0.241394         6.5687

MULLIKEN ATOMIC CHARGES
-----------------------
   0 C :   -0.034455
   1 H :    0.044383
   2 H :    0.053740
   3 C :   -0.090385
   4 H :    0.026717
   5 C :   -0.090385
   6 H :    0.026717
   7 C :   -0.034455
   8 H :    0.044383
   9 H :    0.053740
Sum of atomic charges:   -0.0000000

LOEWDIN ATOMIC CHARGES
----------------------
   0 C :   -0.046829
   1 H :    0.023116
   2 H :    0.026657
   3 C :   -0.032714
   4 H :    0.029770
   5 C :   -0.032714
   6 H :    0.029770
   7 C :   -0.046829
   8 H :    0.023116
   9 H :    0.026657

  Mayer bond orders larger than 0.100000
B(  0-C ,  1-H ) :   0.9680 B(  0-C ,  2-H ) :   0.9694 B(  0-C ,  3-C ) :   1.9535
B(  3-C ,  4-H ) :   0.9737 B(  3-C ,  5-C ) :   1.0768 B(  5-C ,  6-H ) :   0.9737
B(  5-C ,  7-C ) :   1.9535 B(  7-C ,  8-H ) :   0.9680 B(  7-C ,  9-H ) :   0.9694

FINAL SINGLE POINT ENERGY      -154.933765267416

DIPOLE MOMENT
-------------
                                X             Y             Z
Electronic contribution:     -0.00000       0.00000       0.00000
Nuclear contribution   :      0.00000      -0.00000      -0.00000
                        -----------------------------------------
Total Dipole Moment    :     -0.00000      -0.00000      -0.00000
                        -----------------------------------------
Magnitude (a.u.)       :      0.00000
Magnitude (Debye)      :      0.00000

Rotational constants in cm-1:     1.397081     0.146782     0.132827
Rotational constants in MHz : 41883.422262  4400.413202  3982.046052

                             ****ORCA TERMINATED NORMALLY****
TOTAL RUN TIME: 0 days 0 hours 0 minutes 21 seconds 45 msec
