                         Program Version 5.0.0 -  RELEASE  -
|  1> ! cc-pvdz pal8 NoUseSym
|  2> ! MOread
|  3> %moinp "trans-1,3-bivinyl-rhf.gbw"
|  4>
|  5> %scf
|  6>     rotate  {17,20,90} end
|  7> end
|  8>
|  9> %casscf
| 10>     mult    1
| 11>     nel     4
| 12>     norb    4
| 13> end
| 14>
| 15> *xyz 0 1
| 16>  C   -6.64118154871840     -1.62152199820221     -0.00000009697356
| 17>  H   -6.14278421708044     -2.59598105665497     -0.00000014220472
| 18>  H   -7.73333554424968     -1.61977238029341     -0.00000042278070
| 19>  C   -5.93549956067656     -0.47904328673011      0.00000030766916
| 20>  H   -6.46384951769643      0.48219250457623      0.00000027918139
| 21>  C   -4.47901443536966     -0.41544209462766      0.00000033271928
| 22>  H   -3.95066484182954     -1.37667808135024      0.00000039582290
| 23>  C   -3.77333222954333      0.72703646535930     -0.00000006376917
| 24>  H   -4.27172926240940      1.70149564387711     -0.00000005020219
| 25>  H   -2.68117824242655      0.72528655404596     -0.00000053946240
| 26> *
| 27>
| 28>
| 29>                          ****END OF INPUT****

CARTESIAN COORDINATES (ANGSTROEM)
---------------------------------
  C     -6.641182   -1.621522   -0.000000
  H     -6.142784   -2.595981   -0.000000
  H     -7.733336   -1.619772   -0.000000
  C     -5.935500   -0.479043    0.000000
  H     -6.463850    0.482193    0.000000
  C     -4.479014   -0.415442    0.000000
  H     -3.950665   -1.376678    0.000000
  C     -3.773332    0.727036   -0.000000
  H     -4.271729    1.701496   -0.000000
  H     -2.681178    0.725287   -0.000001

 Total Charge           Charge          ....    0
 Multiplicity           Mult            ....    1
 Number of Electrons    NEL             ....   30
 Basis Dimension        Dim             ....   86

ORBITAL ENERGIES
----------------

  NO   OCC          E(Eh)            E(eV)
   0   2.0000     -11.231959      -305.6371
   1   2.0000     -11.231176      -305.6158
   2   2.0000     -11.225874      -305.4716
   3   2.0000     -11.225857      -305.4711
   4   2.0000      -1.083050       -29.4713
   5   2.0000      -0.991805       -26.9884
   6   2.0000      -0.818140       -22.2627
   7   2.0000      -0.743867       -20.2416
   8   2.0000      -0.634080       -17.2542
   9   2.0000      -0.624474       -16.9928
  10   2.0000      -0.547982       -14.9113
  11   2.0000      -0.534519       -14.5450
  12   2.0000      -0.484321       -13.1790
  13   1.9342      -0.427825       -11.6417
  14   1.8852      -0.304180        -8.2771
  15   0.1194       0.148652         4.0450
  16   0.0612       0.327332         8.9072
  17   0.0000       0.203358         5.5336
  18   0.0000       0.207951         5.6586
  19   0.0000       0.215656         5.8683
  20   0.0000       0.269804         7.3417
  21   0.0000       0.277937         7.5630

MULLIKEN ATOMIC CHARGES
-----------------------
   0 C :   -0.020787
   1 H :    0.039687
   2 H :    0.048502
   3 C :   -0.089022
   4 H :    0.021620
   5 C :   -0.089022
   6 H :    0.021620
   7 C :   -0.020787
   8 H :    0.039687
   9 H :    0.048502
Sum of atomic charges:   -0.0000000

LOEWDIN ATOMIC CHARGES
----------------------
   0 C :   -0.037328
   1 H :    0.020254
   2 H :    0.023563
   3 C :   -0.032488
   4 H :    0.025998
   5 C :   -0.032488
   6 H :    0.025998
   7 C :   -0.037328
   8 H :    0.020254
   9 H :    0.023563

  Mayer bond orders larger than 0.100000
B(  0-C ,  1-H ) :   0.9689 B(  0-C ,  2-H ) :   0.9706 B(  0-C ,  3-C ) :   1.8041
B(  3-C ,  4-H ) :   0.9737 B(  3-C ,  5-C ) :   1.0741 B(  5-C ,  6-H ) :   0.9737
B(  5-C ,  7-C ) :   1.8041 B(  7-C ,  8-H ) :   0.9689 B(  7-C ,  9-H ) :   0.9706

FINAL SINGLE POINT ENERGY      -154.988776954802

DIPOLE MOMENT
-------------
                                X             Y             Z
Electronic contribution:     -0.00000       0.00000      -0.00011
Nuclear contribution   :      0.00000      -0.00000      -0.00000
                        -----------------------------------------
Total Dipole Moment    :     -0.00000      -0.00000      -0.00011
                        -----------------------------------------
Magnitude (a.u.)       :      0.00011
Magnitude (Debye)      :      0.00029

Rotational constants in cm-1:     1.397081     0.146782     0.132827
Rotational constants in MHz : 41883.422262  4400.413202  3982.046052

                             ****ORCA TERMINATED NORMALLY****
TOTAL RUN TIME: 0 days 0 hours 0 minutes 42 seconds 123 msec
