                         Program Version 5.0.0 -  RELEASE  -
|  1> ! UHF def2-TZVP Slowconv NoRI VeryTightSCF
|  2> ! MOread
|  3>
|  4> %pal
|  5>     nprocs  16
|  6> end
|  7>
|  8> %moinp "RC-highspin.gbw"
|  9>
| 10> %scf
| 11>     MaxIter         500
| 12>     FlipSpin        45
| 13>     FinalMs         0.5
| 14> end
| 15>
| 16> *xyz +1 12
| 17>  C		41.75403		53.28594		36.47089
| 18>  N		42.78753		53.11575		35.57581
| 19>  H		43.16994		53.82901		34.93449
| 20>  C		43.13114		51.81325		35.56784
| 21>  H		43.90950		51.37773		34.94414
| 22>  N		42.37607		51.13571		36.42691
| 23>  C		41.50665		52.03904		37.00144
| 24>  H		40.82544		51.73164		37.79505
| 25>  C		40.09202		47.27196		33.79593
| 26>  N		40.01563		48.58847		33.38565
| 27>  H		39.43866		49.00474		32.64677
| 28>  C		40.81932		49.32188		34.18498
| 29>  H		40.95055		50.39694		34.07925
| 30>  N		41.40562		48.54888		35.08628
| 31>  C		40.96397		47.26826		34.85989
| 32>  H		41.28483		46.44894		35.49587
| 33>  C		38.24865		48.45183		37.81335
| 34>  H		38.06635		49.38048		37.25970
| 35>  H		37.98920		48.64643		38.86583
| 36>  C		39.73354		48.12878		37.79602
| 37>  O		40.09424		46.93213		38.07281
| 38>  O		40.52803		49.07737		37.61504
| 39>  C		38.64939		43.85153		40.73232
| 40>  N		39.75318		43.46223		41.46909
| 41>  H		39.79405		42.88321		42.31374
| 42>  C		40.85619		43.95040		40.87085
| 43>  H		41.86208		43.73437		41.21668
| 44>  N		40.53337		44.65182		39.79100
| 45>  C		39.15956		44.58428		39.68656
| 46>  H		38.64310		45.07085		38.86947
| 47>  C		42.78301		43.20389		35.50791
| 48>  N		41.70402		42.56435		36.07633
| 49>  H		41.38662		41.60923		35.87328
| 50>  C		41.22751		43.34662		37.06020
| 51>  H		40.41347		43.06024		37.71905
| 52>  N		41.93585		44.46949		37.14463
| 53>  C		42.92016		44.39135		36.18173
| 54>  H		43.65411		45.17925		36.03284
| 55>  C		45.76587		48.09327		34.01347
| 56>  H		45.12996		47.64758		33.22625
| 57>  H		46.66030		47.46138		34.10695
| 58>  C		44.95577		48.01686		35.29973
| 59>  O		44.14613		48.94934		35.56215
| 60>  O		45.08740		46.97457		36.01411
| 61>  Fe		42.54033		49.05049		36.87039
| 62>  Fe		41.81627		46.03465		38.62397
| 63>  O		42.83867		47.18229		37.39246
| 64>  H		43.73492		46.94286		37.02348
| 65>  C		43.49167		47.06037		40.65787
| 66>  C		43.62987		47.67506		42.05581
| 67>  C		45.10300		47.59033		42.50474
| 68>  C		45.62301		46.15243		42.46240
| 69>  C		45.40189		45.47910		41.08480
| 70>  C		43.92995		45.59891		40.70191
| 71>  O		42.19103		47.12374		40.15874
| 72>  O		42.77905		47.01209		42.97498
| 73>  O		45.28716		48.11554		43.80319
| 74>  O		46.99767		46.17794		42.81101
| 75>  O		45.74511		44.11656		41.09014
| 76>  O		43.60430		45.05282		39.42323
| 77>  H		44.17197		47.60667		39.96927
| 78>  H		43.37341		48.74685		41.99147
| 79>  H		45.70505		48.16527		41.77049
| 80>  H		45.03923		45.57203		43.19495
| 81>  H		46.01899		46.03720		40.34589
| 82>  H		43.33990		45.09204		41.48188
| 83>  H		42.10859		47.68790		43.28977
| 84>  H		45.23130		49.11516		43.72228
| 85>  H		47.38229		45.25422		42.73309
| 86>  H		46.61333		43.98248		41.55557
| 87>  H		43.51869		44.03919		39.45235
| 88>  O		42.87964		49.71258		38.89705
| 89>  O		44.05578		49.61518		38.40447
| 90>  H		41.30382		54.25088		36.70388
| 91>  H		39.55092		46.42585		33.37239
| 92>  H		37.60102		47.66437		37.42791
| 93>  H		37.60539		43.64548		40.96829
| 94>  H		43.42804		42.77098		34.74333
| 95>  H		46.04434		49.08634		33.66087
| 96> *
| 97>
| 98>                          ****END OF INPUT****

CARTESIAN COORDINATES (ANGSTROEM)
---------------------------------
  C     41.754030   53.285940   36.470890
  N     42.787530   53.115750   35.575810
  H     43.169940   53.829010   34.934490
  C     43.131140   51.813250   35.567840
  H     43.909500   51.377730   34.944140
  N     42.376070   51.135710   36.426910
  C     41.506650   52.039040   37.001440
  H     40.825440   51.731640   37.795050
  C     40.092020   47.271960   33.795930
  N     40.015630   48.588470   33.385650
  H     39.438660   49.004740   32.646770
  C     40.819320   49.321880   34.184980
  H     40.950550   50.396940   34.079250
  N     41.405620   48.548880   35.086280
  C     40.963970   47.268260   34.859890
  H     41.284830   46.448940   35.495870
  C     38.248650   48.451830   37.813350
  H     38.066350   49.380480   37.259700
  H     37.989200   48.646430   38.865830
  C     39.733540   48.128780   37.796020
  O     40.094240   46.932130   38.072810
  O     40.528030   49.077370   37.615040
  C     38.649390   43.851530   40.732320
  N     39.753180   43.462230   41.469090
  H     39.794050   42.883210   42.313740
  C     40.856190   43.950400   40.870850
  H     41.862080   43.734370   41.216680
  N     40.533370   44.651820   39.791000
  C     39.159560   44.584280   39.686560
  H     38.643100   45.070850   38.869470
  C     42.783010   43.203890   35.507910
  N     41.704020   42.564350   36.076330
  H     41.386620   41.609230   35.873280
  C     41.227510   43.346620   37.060200
  H     40.413470   43.060240   37.719050
  N     41.935850   44.469490   37.144630
  C     42.920160   44.391350   36.181730
  H     43.654110   45.179250   36.032840
  C     45.765870   48.093270   34.013470
  H     45.129960   47.647580   33.226250
  H     46.660300   47.461380   34.106950
  C     44.955770   48.016860   35.299730
  O     44.146130   48.949340   35.562150
  O     45.087400   46.974570   36.014110
  Fe    42.540330   49.050490   36.870390
  Fe    41.816270   46.034650   38.623970
  O     42.838670   47.182290   37.392460
  H     43.734920   46.942860   37.023480
  C     43.491670   47.060370   40.657870
  C     43.629870   47.675060   42.055810
  C     45.103000   47.590330   42.504740
  C     45.623010   46.152430   42.462400
  C     45.401890   45.479100   41.084800
  C     43.929950   45.598910   40.701910
  O     42.191030   47.123740   40.158740
  O     42.779050   47.012090   42.974980
  O     45.287160   48.115540   43.803190
  O     46.997670   46.177940   42.811010
  O     45.745110   44.116560   41.090140
  O     43.604300   45.052820   39.423230
  H     44.171970   47.606670   39.969270
  H     43.373410   48.746850   41.991470
  H     45.705050   48.165270   41.770490
  H     45.039230   45.572030   43.194950
  H     46.018990   46.037200   40.345890
  H     43.339900   45.092040   41.481880
  H     42.108590   47.687900   43.289770
  H     45.231300   49.115160   43.722280
  H     47.382290   45.254220   42.733090
  H     46.613330   43.982480   41.555570
  H     43.518690   44.039190   39.452350
  O     42.879640   49.712580   38.897050
  O     44.055780   49.615180   38.404470
  H     41.303820   54.250880   36.703880
  H     39.550920   46.425850   33.372390
  H     37.601020   47.664370   37.427910
  H     37.605390   43.645480   40.968290
  H     43.428040   42.770980   34.743330
  H     46.044340   49.086340   33.660870

 Total Charge           Charge          ....    1
 Multiplicity           Mult            ....   12
 Number of Electrons    NEL             ....  377
 Basis Dimension        Dim             .... 1627

ORBITAL ENERGIES
----------------
                 SPIN UP ORBITALS
  NO   OCC          E(Eh)            E(eV)
   0   1.0000    -261.609206     -7118.7484
   1   1.0000    -261.606264     -7118.6683
   2   1.0000     -32.273612      -878.2096
   3   1.0000     -32.110931      -873.7829
   4   1.0000     -27.750303      -755.1241
   5   1.0000     -27.750083      -755.1181
   6   1.0000     -27.749683      -755.1073
   7   1.0000     -27.589801      -750.7566
   8   1.0000     -27.589113      -750.7379
   9   1.0000     -27.588722      -750.7273
  10   1.0000     -20.689432      -562.9881
  11   1.0000     -20.639343      -561.6251
  12   1.0000     -20.635209      -561.5126
  13   1.0000     -20.633236      -561.4589
  14   1.0000     -20.619588      -561.0875
  15   1.0000     -20.618597      -561.0605
  16   1.0000     -20.613877      -560.9321
  17   1.0000     -20.606163      -560.7222
  18   1.0000     -20.602180      -560.6138
  19   1.0000     -20.589507      -560.2690
  20   1.0000     -20.582804      -560.0866
  21   1.0000     -20.562077      -559.5226
  22   1.0000     -20.531247      -558.6836
  23   1.0000     -15.750096      -428.5819
  24   1.0000     -15.745965      -428.4695
  25   1.0000     -15.737157      -428.2298
  26   1.0000     -15.728781      -428.0019
  27   1.0000     -15.691211      -426.9796
  28   1.0000     -15.685832      -426.8332
  29   1.0000     -15.674373      -426.5214
  30   1.0000     -15.670604      -426.4188
  31   1.0000     -11.457780      -311.7821
  32   1.0000     -11.433294      -311.1157
  33   1.0000     -11.429875      -311.0227
  34   1.0000     -11.416998      -310.6723
  35   1.0000     -11.416001      -310.6452
  36   1.0000     -11.408904      -310.4521
  37   1.0000     -11.379107      -309.6412
  38   1.0000     -11.374642      -309.5198
  39   1.0000     -11.369707      -309.3855
  40   1.0000     -11.363925      -309.2281
  41   1.0000     -11.358990      -309.0938
  42   1.0000     -11.358984      -309.0937
  43   1.0000     -11.353661      -308.9488
  44   1.0000     -11.352243      -308.9102
  45   1.0000     -11.347960      -308.7937
  46   1.0000     -11.346573      -308.7560
  47   1.0000     -11.337156      -308.4997
  48   1.0000     -11.328701      -308.2696
  49   1.0000     -11.323554      -308.1296
  50   1.0000     -11.314913      -307.8944
  51   1.0000     -11.310220      -307.7667
  52   1.0000     -11.283134      -307.0297
  53   1.0000      -4.629460      -125.9740
  54   1.0000      -4.186220      -113.9128
  55   1.0000      -3.245096       -88.3036
  56   1.0000      -3.242113       -88.2224
  57   1.0000      -3.241104       -88.1949
  58   1.0000      -2.709175       -73.7204
  59   1.0000      -2.707112       -73.6643
  60   1.0000      -2.705825       -73.6292
  61   1.0000      -1.566810       -42.6351
  62   1.0000      -1.500879       -40.8410
  63   1.0000      -1.481785       -40.3214
  64   1.0000      -1.472104       -40.0580
  65   1.0000      -1.466868       -39.9155
  66   1.0000      -1.463881       -39.8342
  67   1.0000      -1.458194       -39.6795
  68   1.0000      -1.450207       -39.4621
  69   1.0000      -1.443663       -39.2841
  70   1.0000      -1.418728       -38.6056
  71   1.0000      -1.404629       -38.2219
  72   1.0000      -1.397095       -38.0169
  73   1.0000      -1.386418       -37.7264
  74   1.0000      -1.359874       -37.0040
  75   1.0000      -1.345730       -36.6192
  76   1.0000      -1.321757       -35.9668
  77   1.0000      -1.299718       -35.3671
  78   1.0000      -1.293667       -35.2025
  79   1.0000      -1.288214       -35.0541
  80   1.0000      -1.279180       -34.8082
  81   1.0000      -1.140944       -31.0467
  82   1.0000      -1.130445       -30.7610
  83   1.0000      -1.130315       -30.7574
  84   1.0000      -1.123515       -30.5724
  85   1.0000      -1.119918       -30.4745
  86   1.0000      -1.109603       -30.1938
  87   1.0000      -1.076750       -29.2999
  88   1.0000      -1.045446       -28.4480
  89   1.0000      -1.039685       -28.2913
  90   1.0000      -1.016914       -27.6716
  91   1.0000      -0.985514       -26.8172
  92   1.0000      -0.979781       -26.6612
  93   1.0000      -0.959834       -26.1184
  94   1.0000      -0.959530       -26.1101
  95   1.0000      -0.955535       -26.0014
  96   1.0000      -0.954918       -25.9847
  97   1.0000      -0.952538       -25.9199
  98   1.0000      -0.938943       -25.5499
  99   1.0000      -0.928516       -25.2662
 100   1.0000      -0.924121       -25.1466
 101   1.0000      -0.920777       -25.0556
 102   1.0000      -0.909921       -24.7602
 103   1.0000      -0.905273       -24.6337
 104   1.0000      -0.901241       -24.5240
 105   1.0000      -0.884337       -24.0640
 106   1.0000      -0.879069       -23.9207
 107   1.0000      -0.871356       -23.7108
 108   1.0000      -0.870788       -23.6953
 109   1.0000      -0.858260       -23.3544
 110   1.0000      -0.850829       -23.1522
 111   1.0000      -0.836497       -22.7622
 112   1.0000      -0.808221       -21.9928
 113   1.0000      -0.800823       -21.7915
 114   1.0000      -0.780515       -21.2389
 115   1.0000      -0.776454       -21.1284
 116   1.0000      -0.761089       -20.7103
 117   1.0000      -0.750962       -20.4347
 118   1.0000      -0.748953       -20.3800
 119   1.0000      -0.743283       -20.2258
 120   1.0000      -0.740158       -20.1407
 121   1.0000      -0.737736       -20.0748
 122   1.0000      -0.735174       -20.0051
 123   1.0000      -0.730226       -19.8705
 124   1.0000      -0.729645       -19.8546
 125   1.0000      -0.727725       -19.8024
 126   1.0000      -0.724207       -19.7067
 127   1.0000      -0.721164       -19.6239
 128   1.0000      -0.720370       -19.6023
 129   1.0000      -0.715832       -19.4788
 130   1.0000      -0.713669       -19.4199
 131   1.0000      -0.712867       -19.3981
 132   1.0000      -0.712065       -19.3763
 133   1.0000      -0.709344       -19.3022
 134   1.0000      -0.702141       -19.1062
 135   1.0000      -0.699695       -19.0397
 136   1.0000      -0.698456       -19.0060
 137   1.0000      -0.697783       -18.9876
 138   1.0000      -0.696625       -18.9561
 139   1.0000      -0.692156       -18.8345
 140   1.0000      -0.690040       -18.7769
 141   1.0000      -0.687333       -18.7033
 142   1.0000      -0.682438       -18.5701
 143   1.0000      -0.675291       -18.3756
 144   1.0000      -0.674868       -18.3641
 145   1.0000      -0.666946       -18.1485
 146   1.0000      -0.656649       -17.8683
 147   1.0000      -0.650100       -17.6901
 148   1.0000      -0.644561       -17.5394
 149   1.0000      -0.642083       -17.4720
 150   1.0000      -0.637176       -17.3385
 151   1.0000      -0.629890       -17.1402
 152   1.0000      -0.626933       -17.0597
 153   1.0000      -0.618640       -16.8341
 154   1.0000      -0.617716       -16.8089
 155   1.0000      -0.610561       -16.6142
 156   1.0000      -0.609804       -16.5936
 157   1.0000      -0.607813       -16.5394
 158   1.0000      -0.603038       -16.4095
 159   1.0000      -0.600901       -16.3513
 160   1.0000      -0.583674       -15.8826
 161   1.0000      -0.582100       -15.8397
 162   1.0000      -0.567649       -15.4465
 163   1.0000      -0.560801       -15.2602
 164   1.0000      -0.555455       -15.1147
 165   1.0000      -0.554511       -15.0890
 166   1.0000      -0.545028       -14.8310
 167   1.0000      -0.543975       -14.8023
 168   1.0000      -0.539526       -14.6812
 169   1.0000      -0.535065       -14.5599
 170   1.0000      -0.531719       -14.4688
 171   1.0000      -0.526702       -14.3323
 172   1.0000      -0.520096       -14.1525
 173   1.0000      -0.519007       -14.1229
 174   1.0000      -0.517206       -14.0739
 175   1.0000      -0.507388       -13.8067
 176   1.0000      -0.505920       -13.7668
 177   1.0000      -0.491263       -13.3679
 178   1.0000      -0.488298       -13.2873
 179   1.0000      -0.484117       -13.1735
 180   1.0000      -0.482659       -13.1338
 181   1.0000      -0.480221       -13.0675
 182   1.0000      -0.450849       -12.2682
 183   1.0000      -0.444551       -12.0969
 184   1.0000      -0.439792       -11.9674
 185   1.0000      -0.437936       -11.9168
 186   1.0000      -0.431740       -11.7482
 187   1.0000      -0.429426       -11.6853
 188   1.0000      -0.420060       -11.4304
 189   0.0000       0.013548         0.3687
 190   0.0000       0.023179         0.6307
 191   0.0000       0.030998         0.8435
 192   0.0000       0.032829         0.8933
 193   0.0000       0.035564         0.9678

                 SPIN DOWN ORBITALS
  NO   OCC          E(Eh)            E(eV)
   0   1.0000    -261.610189     -7118.7752
   1   1.0000    -261.605385     -7118.6444
   2   1.0000     -32.276360      -878.2844
   3   1.0000     -32.108042      -873.7043
   4   1.0000     -27.753449      -755.2097
   5   1.0000     -27.752504      -755.1840
   6   1.0000     -27.751457      -755.1555
   7   1.0000     -27.586859      -750.6766
   8   1.0000     -27.586589      -750.6692
   9   1.0000     -27.586525      -750.6675
  10   1.0000     -20.691734      -563.0507
  11   1.0000     -20.639341      -561.6250
  12   1.0000     -20.621990      -561.1529
  13   1.0000     -20.619594      -561.0877
  14   1.0000     -20.611465      -560.8665
  15   1.0000     -20.606152      -560.7219
  16   1.0000     -20.602906      -560.6336
  17   1.0000     -20.602197      -560.6143
  18   1.0000     -20.601703      -560.6008
  19   1.0000     -20.586310      -560.1820
  20   1.0000     -20.583383      -560.1023
  21   1.0000     -20.562126      -559.5239
  22   1.0000     -20.538112      -558.8704
  23   1.0000     -15.750152      -428.5834
  24   1.0000     -15.746062      -428.4721
  25   1.0000     -15.737060      -428.2272
  26   1.0000     -15.728739      -428.0008
  27   1.0000     -15.693400      -427.0391
  28   1.0000     -15.688217      -426.8981
  29   1.0000     -15.671358      -426.4393
  30   1.0000     -15.668337      -426.3571
  31   1.0000     -11.457872      -311.7846
  32   1.0000     -11.433207      -311.1134
  33   1.0000     -11.429646      -311.0165
  34   1.0000     -11.417431      -310.6841
  35   1.0000     -11.416035      -310.6461
  36   1.0000     -11.409169      -310.4593
  37   1.0000     -11.379326      -309.6472
  38   1.0000     -11.374826      -309.5248
  39   1.0000     -11.369255      -309.3732
  40   1.0000     -11.363711      -309.2223
  41   1.0000     -11.358818      -309.0892
  42   1.0000     -11.358555      -309.0820
  43   1.0000     -11.353625      -308.9479
  44   1.0000     -11.352702      -308.9227
  45   1.0000     -11.347975      -308.7941
  46   1.0000     -11.346936      -308.7658
  47   1.0000     -11.337158      -308.4997
  48   1.0000     -11.328725      -308.2703
  49   1.0000     -11.323667      -308.1326
  50   1.0000     -11.314903      -307.8942
  51   1.0000     -11.310260      -307.7678
  52   1.0000     -11.283024      -307.0267
  53   1.0000      -4.634138      -126.1013
  54   1.0000      -4.181139      -113.7746
  55   1.0000      -3.249502       -88.4234
  56   1.0000      -3.247183       -88.3603
  57   1.0000      -3.245121       -88.3042
  58   1.0000      -2.703774       -73.5734
  59   1.0000      -2.702338       -73.5344
  60   1.0000      -2.700831       -73.4934
  61   1.0000      -1.502090       -40.8740
  62   1.0000      -1.486643       -40.4536
  63   1.0000      -1.485649       -40.4266
  64   1.0000      -1.473317       -40.0910
  65   1.0000      -1.468018       -39.9468
  66   1.0000      -1.459619       -39.7183
  67   1.0000      -1.456653       -39.6375
  68   1.0000      -1.449004       -39.4294
  69   1.0000      -1.444069       -39.2951
  70   1.0000      -1.418858       -38.6091
  71   1.0000      -1.404845       -38.2278
  72   1.0000      -1.399202       -38.0742
  73   1.0000      -1.386600       -37.7313
  74   1.0000      -1.359149       -36.9843
  75   1.0000      -1.344445       -36.5842
  76   1.0000      -1.339326       -36.4449
  77   1.0000      -1.302577       -35.4449
  78   1.0000      -1.296775       -35.2870
  79   1.0000      -1.284535       -34.9540
  80   1.0000      -1.275950       -34.7204
  81   1.0000      -1.142818       -31.0976
  82   1.0000      -1.130900       -30.7734
  83   1.0000      -1.130692       -30.7677
  84   1.0000      -1.119538       -30.4642
  85   1.0000      -1.109182       -30.1824
  86   1.0000      -1.077636       -29.3240
  87   1.0000      -1.043380       -28.3918
  88   1.0000      -1.040798       -28.3216
  89   1.0000      -1.023908       -27.8620
  90   1.0000      -1.000889       -27.2356
  91   1.0000      -0.990389       -26.9499
  92   1.0000      -0.986302       -26.8386
  93   1.0000      -0.967525       -26.3277
  94   1.0000      -0.963531       -26.2190
  95   1.0000      -0.962306       -26.1857
  96   1.0000      -0.950718       -25.8704
  97   1.0000      -0.945110       -25.7177
  98   1.0000      -0.943191       -25.6655
  99   1.0000      -0.932227       -25.3672
 100   1.0000      -0.923264       -25.1233
 101   1.0000      -0.918808       -25.0020
 102   1.0000      -0.910770       -24.7833
 103   1.0000      -0.904543       -24.6139
 104   1.0000      -0.903281       -24.5795
 105   1.0000      -0.885094       -24.0846
 106   1.0000      -0.879105       -23.9217
 107   1.0000      -0.870528       -23.6883
 108   1.0000      -0.869061       -23.6483
 109   1.0000      -0.858462       -23.3599
 110   1.0000      -0.846661       -23.0388
 111   1.0000      -0.835580       -22.7373
 112   1.0000      -0.811639       -22.0858
 113   1.0000      -0.801553       -21.8114
 114   1.0000      -0.781209       -21.2578
 115   1.0000      -0.772268       -21.0145
 116   1.0000      -0.761896       -20.7322
 117   1.0000      -0.751064       -20.4375
 118   1.0000      -0.747962       -20.3531
 119   1.0000      -0.745366       -20.2824
 120   1.0000      -0.737489       -20.0681
 121   1.0000      -0.735268       -20.0077
 122   1.0000      -0.731549       -19.9065
 123   1.0000      -0.728980       -19.8366
 124   1.0000      -0.727625       -19.7997
 125   1.0000      -0.722474       -19.6595
 126   1.0000      -0.720857       -19.6155
 127   1.0000      -0.720298       -19.6003
 128   1.0000      -0.715163       -19.4606
 129   1.0000      -0.714494       -19.4424
 130   1.0000      -0.713495       -19.4152
 131   1.0000      -0.711983       -19.3740
 132   1.0000      -0.705697       -19.2030
 133   1.0000      -0.701490       -19.0885
 134   1.0000      -0.700977       -19.0745
 135   1.0000      -0.698657       -19.0114
 136   1.0000      -0.697270       -18.9737
 137   1.0000      -0.694597       -18.9010
 138   1.0000      -0.690764       -18.7966
 139   1.0000      -0.686530       -18.6814
 140   1.0000      -0.681127       -18.5344
 141   1.0000      -0.676416       -18.4062
 142   1.0000      -0.674831       -18.3631
 143   1.0000      -0.667836       -18.1727
 144   1.0000      -0.665812       -18.1177
 145   1.0000      -0.657565       -17.8933
 146   1.0000      -0.645959       -17.5774
 147   1.0000      -0.641727       -17.4623
 148   1.0000      -0.635753       -17.2997
 149   1.0000      -0.632107       -17.2005
 150   1.0000      -0.627714       -17.0810
 151   1.0000      -0.625387       -17.0176
 152   1.0000      -0.619033       -16.8447
 153   1.0000      -0.617846       -16.8125
 154   1.0000      -0.613683       -16.6991
 155   1.0000      -0.610183       -16.6039
 156   1.0000      -0.605076       -16.4649
 157   1.0000      -0.601959       -16.3801
 158   1.0000      -0.596633       -16.2352
 159   1.0000      -0.584986       -15.9183
 160   1.0000      -0.580353       -15.7922
 161   1.0000      -0.574446       -15.6315
 162   1.0000      -0.567264       -15.4360
 163   1.0000      -0.555103       -15.1051
 164   1.0000      -0.552004       -15.0208
 165   1.0000      -0.545855       -14.8535
 166   1.0000      -0.544139       -14.8068
 167   1.0000      -0.542653       -14.7663
 168   1.0000      -0.535568       -14.5736
 169   1.0000      -0.533270       -14.5110
 170   1.0000      -0.527430       -14.3521
 171   1.0000      -0.520880       -14.1739
 172   1.0000      -0.518778       -14.1167
 173   1.0000      -0.514776       -14.0078
 174   1.0000      -0.509322       -13.8594
 175   1.0000      -0.505803       -13.7636
 176   1.0000      -0.492470       -13.4008
 177   1.0000      -0.484803       -13.1922
 178   1.0000      -0.483424       -13.1546
 179   1.0000      -0.479625       -13.0513
 180   1.0000      -0.472190       -12.8489
 181   1.0000      -0.455792       -12.4027
 182   1.0000      -0.444516       -12.0959
 183   1.0000      -0.441814       -12.0224
 184   1.0000      -0.437040       -11.8925
 185   1.0000      -0.429569       -11.6892
 186   1.0000      -0.420369       -11.4388
 187   1.0000      -0.382904       -10.4193
 188   0.0000       0.014146         0.3849
 189   0.0000       0.025299         0.6884
 190   0.0000       0.030913         0.8412
 191   0.0000       0.033764         0.9188
 192   0.0000       0.038634         1.0513

MULLIKEN ATOMIC CHARGES AND SPIN POPULATIONS
--------------------------------------------
   0 C :   -0.045088    0.021476
   1 N :   -0.326185    0.000253
   2 H :    0.292461    0.000466
   3 C :    0.172988   -0.012949
   4 H :    0.211325    0.000855
   5 N :   -0.262319    0.041079
   6 C :   -0.054550   -0.018203
   7 H :    0.189353    0.001020
   8 C :   -0.098942    0.020472
   9 N :   -0.320664    0.001670
  10 H :    0.288727    0.000415
  11 C :    0.171104   -0.020031
  12 H :    0.190687    0.002094
  13 N :   -0.259485    0.037500
  14 C :   -0.001442   -0.020612
  15 H :    0.176414    0.000166
  16 C :   -0.363373   -0.001351
  17 H :    0.133563   -0.000398
  18 H :    0.148450   -0.000278
  19 C :    0.722340   -0.002798
  20 O :   -0.716888   -0.030156
  21 O :   -0.616802    0.022877
  22 C :   -0.053333   -0.009382
  23 N :   -0.330755   -0.002014
  24 H :    0.295093   -0.000279
  25 C :    0.224198    0.010040
  26 H :    0.176256   -0.000936
  27 N :   -0.356447   -0.026312
  28 C :   -0.056341    0.009758
  29 H :    0.185290   -0.000661
  30 C :   -0.052692   -0.008054
  31 N :   -0.331020   -0.000798
  32 H :    0.293302   -0.000407
  33 C :    0.186889    0.003816
  34 H :    0.205861   -0.000558
  35 N :   -0.349388   -0.024518
  36 C :   -0.067350    0.009006
  37 H :    0.228599   -0.000891
  38 C :   -0.331014    0.003262
  39 H :    0.107128   -0.000209
  40 H :    0.144817    0.000090
  41 C :    0.639189   -0.001075
  42 O :   -0.663632    0.034904
  43 O :   -0.687219   -0.000214
  44 Fe:    1.335416    4.696925
  45 Fe:    1.322233   -4.748398
  46 O :   -1.110271    0.000591
  47 H :    0.424576    0.000782
  48 C :    0.273052   -0.003786
  49 C :    0.111570   -0.007207
  50 C :    0.156975    0.000176
  51 C :    0.103814   -0.000022
  52 C :    0.094436   -0.000114
  53 C :    0.117772    0.004294
  54 O :   -0.761831   -0.097821
  55 O :   -0.577167    0.000310
  56 O :   -0.522367   -0.000267
  57 O :   -0.487925   -0.000101
  58 O :   -0.547307   -0.000055
  59 O :   -0.571985   -0.019080
  60 H :    0.109428    0.000948
  61 H :    0.104202   -0.000231
  62 H :    0.086880   -0.000310
  63 H :    0.074319    0.000000
  64 H :    0.093497    0.000067
  65 H :    0.064453   -0.000585
  66 H :    0.346121   -0.000002
  67 H :    0.334004    0.000018
  68 H :    0.300065    0.000011
  69 H :    0.320868    0.000090
  70 H :    0.378031    0.000596
  71 O :   -0.299872    0.547040
  72 O :   -0.299261    0.588942
  73 H :    0.184568   -0.001092
  74 H :    0.177350   -0.001300
  75 H :    0.123143    0.000828
  76 H :    0.191321    0.000486
  77 H :    0.193886    0.000348
  78 H :    0.116901   -0.000218
Sum of atomic charges         :    1.0000000

LOEWDIN ATOMIC CHARGES AND SPIN POPULATIONS
-------------------------------------------
   0 C :   -0.208090    0.011224
   1 N :    0.169892    0.000657
   2 H :    0.215019    0.000188
   3 C :   -0.193063   -0.006614
   4 H :    0.151749    0.000128
   5 N :    0.093553    0.031201
   6 C :   -0.192461   -0.007769
   7 H :    0.150245    0.000370
   8 C :   -0.209917    0.011874
   9 N :    0.170265    0.001171
  10 H :    0.210919    0.000234
  11 C :   -0.200847   -0.011374
  12 H :    0.143459    0.000244
  13 N :    0.103476    0.041829
  14 C :   -0.200890   -0.009035
  15 H :    0.147329    0.000298
  16 C :   -0.229596   -0.000749
  17 H :    0.126087   -0.000230
  18 H :    0.141222   -0.000174
  19 C :   -0.433362   -0.002906
  20 O :   -0.031853   -0.042451
  21 O :    0.024844    0.028529
  22 C :   -0.197561   -0.005579
  23 N :    0.177999   -0.001287
  24 H :    0.214396   -0.000166
  25 C :   -0.197473    0.005388
  26 H :    0.140798   -0.000144
  27 N :    0.086105   -0.032037
  28 C :   -0.213856    0.003833
  29 H :    0.143310   -0.000122
  30 C :   -0.201615   -0.004667
  31 N :    0.177016   -0.000888
  32 H :    0.214362   -0.000200
  33 C :   -0.209039    0.001506
  34 H :    0.145461   -0.000014
  35 N :    0.075787   -0.029851
  36 C :   -0.196653    0.002995
  37 H :    0.154686   -0.000103
  38 C :   -0.242932    0.001662
  39 H :    0.128824   -0.000070
  40 H :    0.128965    0.000102
  41 C :   -0.484755    0.000453
  42 O :   -0.034219    0.038999
  43 O :   -0.120085   -0.000853
  44 Fe:    0.665051    4.656578
  45 Fe:    0.701040   -4.692918
  46 O :   -0.367602   -0.005425
  47 H :    0.173881   -0.000553
  48 C :   -0.327147   -0.004890
  49 C :   -0.278787   -0.002071
  50 C :   -0.286627   -0.000392
  51 C :   -0.277662   -0.000033
  52 C :   -0.290652   -0.000297
  53 C :   -0.258837    0.000366
  54 O :   -0.191788   -0.100194
  55 O :   -0.058338    0.000110
  56 O :   -0.042704   -0.000241
  57 O :   -0.040365   -0.000088
  58 O :   -0.052720   -0.000030
  59 O :    0.036624   -0.027380
  60 H :    0.150263   -0.001234
  61 H :    0.139528   -0.000082
  62 H :    0.143240   -0.000020
  63 H :    0.139425    0.000002
  64 H :    0.143627    0.000032
  65 H :    0.138370    0.000041
  66 H :    0.208300   -0.000012
  67 H :    0.204354    0.000007
  68 H :    0.184438    0.000004
  69 H :    0.189198    0.000045
  70 H :    0.229258   -0.000080
  71 O :   -0.207230    0.560683
  72 O :   -0.210586    0.592401
  73 H :    0.142347   -0.000097
  74 H :    0.141104   -0.000112
  75 H :    0.118219    0.000374
  76 H :    0.145720   -0.000010
  77 H :    0.146434   -0.000033
  78 H :    0.113124   -0.000056

  Mayer bond orders larger than 0.100000
B(  0-C ,  1-N ) :   1.1174 B(  0-C ,  6-C ) :   1.7261 B(  0-C , 73-H ) :   0.9477
B(  1-N ,  2-H ) :   0.8942 B(  1-N ,  3-C ) :   1.3097 B(  3-C ,  4-H ) :   0.9506
B(  3-C ,  5-N ) :   1.4887 B(  5-N ,  6-C ) :   1.1829 B(  5-N , 44-Fe) :   0.5850
B(  6-C ,  7-H ) :   0.9624 B(  8-C ,  9-N ) :   1.1476 B(  8-C , 14-C ) :   1.7201
B(  8-C , 74-H ) :   0.9515 B(  9-N , 10-H ) :   0.8961 B(  9-N , 11-C ) :   1.3074
B( 11-C , 12-H ) :   0.9580 B( 11-C , 13-N ) :   1.5427 B( 13-N , 14-C ) :   1.1970
B( 13-N , 44-Fe) :   0.4183 B( 14-C , 15-H ) :   0.9655 B( 16-C , 17-H ) :   0.9932
B( 16-C , 18-H ) :   0.9627 B( 16-C , 19-C ) :   0.9673 B( 16-C , 75-H ) :   0.9834
B( 19-C , 20-O ) :   1.3294 B( 19-C , 21-O ) :   1.5062 B( 20-O , 45-Fe) :   0.4195
B( 21-O , 44-Fe) :   0.3069 B( 22-C , 23-N ) :   1.1279 B( 22-C , 28-C ) :   1.7375
B( 22-C , 76-H ) :   0.9469 B( 23-N , 24-H ) :   0.8931 B( 23-N , 25-C ) :   1.3320
B( 25-C , 26-H ) :   0.9546 B( 25-C , 27-N ) :   1.4912 B( 27-N , 28-C ) :   1.1940
B( 27-N , 45-Fe) :   0.4128 B( 28-C , 29-H ) :   0.9648 B( 30-C , 31-N ) :   1.1326
B( 30-C , 36-C ) :   1.7447 B( 30-C , 77-H ) :   0.9423 B( 31-N , 32-H ) :   0.8933
B( 31-N , 33-C ) :   1.3306 B( 33-C , 34-H ) :   0.9530 B( 33-C , 35-N ) :   1.4883
B( 35-N , 36-C ) :   1.1759 B( 35-N , 45-Fe) :   0.4783 B( 36-C , 37-H ) :   0.9261
B( 38-C , 39-H ) :   0.9562 B( 38-C , 40-H ) :   0.9938 B( 38-C , 41-C ) :   0.9844
B( 38-C , 78-H ) :   0.9851 B( 41-C , 42-O ) :   1.3736 B( 41-C , 43-O ) :   1.5748
B( 42-O , 44-Fe) :   0.4115 B( 43-O , 47-H ) :   0.1259 B( 44-Fe, 46-O ) :   0.2690
B( 44-Fe, 71-O ) :   0.4214 B( 44-Fe, 72-O ) :   0.3271 B( 45-Fe, 46-O ) :   0.3690
B( 45-Fe, 54-O ) :   0.7485 B( 45-Fe, 59-O ) :   0.2317 B( 46-O , 47-H ) :   0.7423
B( 48-C , 49-C ) :   0.9347 B( 48-C , 53-C ) :   0.9946 B( 48-C , 54-O ) :   0.8411
B( 48-C , 60-H ) :   0.9936 B( 49-C , 50-C ) :   0.9732 B( 49-C , 55-O ) :   1.0754
B( 49-C , 61-H ) :   0.9712 B( 50-C , 51-C ) :   0.9758 B( 50-C , 56-O ) :   0.9878
B( 50-C , 62-H ) :   0.9976 B( 51-C , 52-C ) :   1.0149 B( 51-C , 57-O ) :   0.9783
B( 51-C , 63-H ) :   0.9849 B( 52-C , 53-C ) :   1.0007 B( 52-C , 58-O ) :   0.9527
B( 52-C , 64-H ) :   0.9917 B( 53-C , 59-O ) :   0.7048 B( 53-C , 65-H ) :   0.9861
B( 55-O , 66-H ) :   0.8795 B( 56-O , 67-H ) :   0.8802 B( 57-O , 68-H ) :   0.8924
B( 58-O , 69-H ) :   0.8809 B( 59-O , 70-H ) :   0.8412 B( 71-O , 72-O ) :   1.1666

FINAL SINGLE POINT ENERGY     -4787.437136856858

DIPOLE MOMENT
-------------
                                X             Y             Z
Electronic contribution:     -7.90802       6.10328      -7.81054
Nuclear contribution   :      2.83187      -8.56052       3.37323
                        -----------------------------------------
Total Dipole Moment    :     -5.07615      -2.45724      -4.43731
                        -----------------------------------------
Magnitude (a.u.)       :      7.17601
Magnitude (Debye)      :     18.23997

Rotational constants in cm-1:     0.002818     0.001896     0.001591
Rotational constants in MHz :    84.485992    56.848204    47.689819

                             ****ORCA TERMINATED NORMALLY****
TOTAL RUN TIME: 0 days 4 hours 6 minutes 52 seconds 56 msec
