                         Program Version 5.0.0 -  RELEASE  -
|  1> ! UHF def2-TZVP Slowconv NoRI VeryTightSCF
|  2>
|  3> %pal
|  4>     nprocs  16
|  5> end
|  6>
|  7> %scf
|  8>     MaxIter         500
|  9> end
| 10>
| 11> *xyz +1 12
| 12>  C		41.75403		53.28594		36.47089
| 13>  N		42.78753		53.11575		35.57581
| 14>  H		43.16994		53.82901		34.93449
| 15>  C		43.13114		51.81325		35.56784
| 16>  H		43.90950		51.37773		34.94414
| 17>  N		42.37607		51.13571		36.42691
| 18>  C		41.50665		52.03904		37.00144
| 19>  H		40.82544		51.73164		37.79505
| 20>  C		40.09202		47.27196		33.79593
| 21>  N		40.01563		48.58847		33.38565
| 22>  H		39.43866		49.00474		32.64677
| 23>  C		40.81932		49.32188		34.18498
| 24>  H		40.95055		50.39694		34.07925
| 25>  N		41.40562		48.54888		35.08628
| 26>  C		40.96397		47.26826		34.85989
| 27>  H		41.28483		46.44894		35.49587
| 28>  C		38.24865		48.45183		37.81335
| 29>  H		38.06635		49.38048		37.25970
| 30>  H		37.98920		48.64643		38.86583
| 31>  C		39.73354		48.12878		37.79602
| 32>  O		40.09424		46.93213		38.07281
| 33>  O		40.52803		49.07737		37.61504
| 34>  C		38.64939		43.85153		40.73232
| 35>  N		39.75318		43.46223		41.46909
| 36>  H		39.79405		42.88321		42.31374
| 37>  C		40.85619		43.95040		40.87085
| 38>  H		41.86208		43.73437		41.21668
| 39>  N		40.53337		44.65182		39.79100
| 40>  C		39.15956		44.58428		39.68656
| 41>  H		38.64310		45.07085		38.86947
| 42>  C		42.78301		43.20389		35.50791
| 43>  N		41.70402		42.56435		36.07633
| 44>  H		41.38662		41.60923		35.87328
| 45>  C		41.22751		43.34662		37.06020
| 46>  H		40.41347		43.06024		37.71905
| 47>  N		41.93585		44.46949		37.14463
| 48>  C		42.92016		44.39135		36.18173
| 49>  H		43.65411		45.17925		36.03284
| 50>  C		45.76587		48.09327		34.01347
| 51>  H		45.12996		47.64758		33.22625
| 52>  H		46.66030		47.46138		34.10695
| 53>  C		44.95577		48.01686		35.29973
| 54>  O		44.14613		48.94934		35.56215
| 55>  O		45.08740		46.97457		36.01411
| 56>  Fe		42.54033		49.05049		36.87039
| 57>  Fe		41.81627		46.03465		38.62397
| 58>  O		42.83867		47.18229		37.39246
| 59>  H		43.73492		46.94286		37.02348
| 60>  C		43.49167		47.06037		40.65787
| 61>  C		43.62987		47.67506		42.05581
| 62>  C		45.10300		47.59033		42.50474
| 63>  C		45.62301		46.15243		42.46240
| 64>  C		45.40189		45.47910		41.08480
| 65>  C		43.92995		45.59891		40.70191
| 66>  O		42.19103		47.12374		40.15874
| 67>  O		42.77905		47.01209		42.97498
| 68>  O		45.28716		48.11554		43.80319
| 69>  O		46.99767		46.17794		42.81101
| 70>  O		45.74511		44.11656		41.09014
| 71>  O		43.60430		45.05282		39.42323
| 72>  H		44.17197		47.60667		39.96927
| 73>  H		43.37341		48.74685		41.99147
| 74>  H		45.70505		48.16527		41.77049
| 75>  H		45.03923		45.57203		43.19495
| 76>  H		46.01899		46.03720		40.34589
| 77>  H		43.33990		45.09204		41.48188
| 78>  H		42.10859		47.68790		43.28977
| 79>  H		45.23130		49.11516		43.72228
| 80>  H		47.38229		45.25422		42.73309
| 81>  H		46.61333		43.98248		41.55557
| 82>  H		43.51869		44.03919		39.45235
| 83>  O		42.87964		49.71258		38.89705
| 84>  O		44.05578		49.61518		38.40447
| 85>  H		41.30382		54.25088		36.70388
| 86>  H		39.55092		46.42585		33.37239
| 87>  H		37.60102		47.66437		37.42791
| 88>  H		37.60539		43.64548		40.96829
| 89>  H		43.42804		42.77098		34.74333
| 90>  H		46.04434		49.08634		33.66087
| 91> *
| 92>
| 93>                          ****END OF INPUT****

CARTESIAN COORDINATES (ANGSTROEM)
---------------------------------
  C     41.754030   53.285940   36.470890
  N     42.787530   53.115750   35.575810
  H     43.169940   53.829010   34.934490
  C     43.131140   51.813250   35.567840
  H     43.909500   51.377730   34.944140
  N     42.376070   51.135710   36.426910
  C     41.506650   52.039040   37.001440
  H     40.825440   51.731640   37.795050
  C     40.092020   47.271960   33.795930
  N     40.015630   48.588470   33.385650
  H     39.438660   49.004740   32.646770
  C     40.819320   49.321880   34.184980
  H     40.950550   50.396940   34.079250
  N     41.405620   48.548880   35.086280
  C     40.963970   47.268260   34.859890
  H     41.284830   46.448940   35.495870
  C     38.248650   48.451830   37.813350
  H     38.066350   49.380480   37.259700
  H     37.989200   48.646430   38.865830
  C     39.733540   48.128780   37.796020
  O     40.094240   46.932130   38.072810
  O     40.528030   49.077370   37.615040
  C     38.649390   43.851530   40.732320
  N     39.753180   43.462230   41.469090
  H     39.794050   42.883210   42.313740
  C     40.856190   43.950400   40.870850
  H     41.862080   43.734370   41.216680
  N     40.533370   44.651820   39.791000
  C     39.159560   44.584280   39.686560
  H     38.643100   45.070850   38.869470
  C     42.783010   43.203890   35.507910
  N     41.704020   42.564350   36.076330
  H     41.386620   41.609230   35.873280
  C     41.227510   43.346620   37.060200
  H     40.413470   43.060240   37.719050
  N     41.935850   44.469490   37.144630
  C     42.920160   44.391350   36.181730
  H     43.654110   45.179250   36.032840
  C     45.765870   48.093270   34.013470
  H     45.129960   47.647580   33.226250
  H     46.660300   47.461380   34.106950
  C     44.955770   48.016860   35.299730
  O     44.146130   48.949340   35.562150
  O     45.087400   46.974570   36.014110
  Fe    42.540330   49.050490   36.870390
  Fe    41.816270   46.034650   38.623970
  O     42.838670   47.182290   37.392460
  H     43.734920   46.942860   37.023480
  C     43.491670   47.060370   40.657870
  C     43.629870   47.675060   42.055810
  C     45.103000   47.590330   42.504740
  C     45.623010   46.152430   42.462400
  C     45.401890   45.479100   41.084800
  C     43.929950   45.598910   40.701910
  O     42.191030   47.123740   40.158740
  O     42.779050   47.012090   42.974980
  O     45.287160   48.115540   43.803190
  O     46.997670   46.177940   42.811010
  O     45.745110   44.116560   41.090140
  O     43.604300   45.052820   39.423230
  H     44.171970   47.606670   39.969270
  H     43.373410   48.746850   41.991470
  H     45.705050   48.165270   41.770490
  H     45.039230   45.572030   43.194950
  H     46.018990   46.037200   40.345890
  H     43.339900   45.092040   41.481880
  H     42.108590   47.687900   43.289770
  H     45.231300   49.115160   43.722280
  H     47.382290   45.254220   42.733090
  H     46.613330   43.982480   41.555570
  H     43.518690   44.039190   39.452350
  O     42.879640   49.712580   38.897050
  O     44.055780   49.615180   38.404470
  H     41.303820   54.250880   36.703880
  H     39.550920   46.425850   33.372390
  H     37.601020   47.664370   37.427910
  H     37.605390   43.645480   40.968290
  H     43.428040   42.770980   34.743330
  H     46.044340   49.086340   33.660870

 Total Charge           Charge          ....    1
 Multiplicity           Mult            ....   12
 Number of Electrons    NEL             ....  377
 Basis Dimension        Dim             .... 1627

ORBITAL ENERGIES
----------------
                 SPIN UP ORBITALS
  NO   OCC          E(Eh)            E(eV)
   0   1.0000    -261.610128     -7118.7735
   1   1.0000    -261.609105     -7118.7456
   2   1.0000     -32.276302      -878.2828
   3   1.0000     -32.273518      -878.2071
   4   1.0000     -27.753391      -755.2082
   5   1.0000     -27.752446      -755.1824
   6   1.0000     -27.751398      -755.1539
   7   1.0000     -27.750212      -755.1217
   8   1.0000     -27.749986      -755.1155
   9   1.0000     -27.749588      -755.1047
  10   1.0000     -20.691783      -563.0520
  11   1.0000     -20.639359      -561.6255
  12   1.0000     -20.635278      -561.5145
  13   1.0000     -20.633247      -561.4592
  14   1.0000     -20.621930      -561.1512
  15   1.0000     -20.619610      -561.0881
  16   1.0000     -20.613930      -560.9335
  17   1.0000     -20.606180      -560.7227
  18   1.0000     -20.602216      -560.6148
  19   1.0000     -20.589510      -560.2691
  20   1.0000     -20.586573      -560.1891
  21   1.0000     -20.562093      -559.5230
  22   1.0000     -20.538457      -558.8798
  23   1.0000     -15.750131      -428.5829
  24   1.0000     -15.746078      -428.4726
  25   1.0000     -15.737129      -428.2290
  26   1.0000     -15.728783      -428.0019
  27   1.0000     -15.693369      -427.0383
  28   1.0000     -15.688244      -426.8988
  29   1.0000     -15.674334      -426.5203
  30   1.0000     -15.670618      -426.4192
  31   1.0000     -11.457786      -311.7822
  32   1.0000     -11.433181      -311.1127
  33   1.0000     -11.429664      -311.0170
  34   1.0000     -11.416967      -310.6715
  35   1.0000     -11.415974      -310.6444
  36   1.0000     -11.408908      -310.4522
  37   1.0000     -11.379337      -309.6475
  38   1.0000     -11.374812      -309.5244
  39   1.0000     -11.369673      -309.3845
  40   1.0000     -11.363722      -309.2226
  41   1.0000     -11.358984      -309.0937
  42   1.0000     -11.358797      -309.0886
  43   1.0000     -11.353662      -308.9489
  44   1.0000     -11.352196      -308.9090
  45   1.0000     -11.347995      -308.7946
  46   1.0000     -11.346573      -308.7560
  47   1.0000     -11.337177      -308.5003
  48   1.0000     -11.328746      -308.2709
  49   1.0000     -11.323702      -308.1336
  50   1.0000     -11.314880      -307.8935
  51   1.0000     -11.310323      -307.7695
  52   1.0000     -11.283119      -307.0293
  53   1.0000      -4.634149      -126.1016
  54   1.0000      -4.629444      -125.9736
  55   1.0000      -3.249524       -88.4240
  56   1.0000      -3.247223       -88.3614
  57   1.0000      -3.245132       -88.3045
  58   1.0000      -3.245103       -88.3037
  59   1.0000      -3.242077       -88.2214
  60   1.0000      -3.241070       -88.1940
  61   1.0000      -1.566844       -42.6360
  62   1.0000      -1.504317       -40.9346
  63   1.0000      -1.486694       -40.4550
  64   1.0000      -1.473306       -40.0907
  65   1.0000      -1.468038       -39.9473
  66   1.0000      -1.464008       -39.8377
  67   1.0000      -1.458177       -39.6790
  68   1.0000      -1.450213       -39.4623
  69   1.0000      -1.444091       -39.2957
  70   1.0000      -1.418882       -38.6098
  71   1.0000      -1.404873       -38.2285
  72   1.0000      -1.402353       -38.1600
  73   1.0000      -1.386628       -37.7321
  74   1.0000      -1.369955       -37.2784
  75   1.0000      -1.348466       -36.6936
  76   1.0000      -1.340156       -36.4675
  77   1.0000      -1.302638       -35.4466
  78   1.0000      -1.296794       -35.2876
  79   1.0000      -1.288204       -35.0538
  80   1.0000      -1.279195       -34.8087
  81   1.0000      -1.142869       -31.0990
  82   1.0000      -1.130889       -30.7731
  83   1.0000      -1.130707       -30.7681
  84   1.0000      -1.123553       -30.5734
  85   1.0000      -1.119877       -30.4734
  86   1.0000      -1.109605       -30.1939
  87   1.0000      -1.078817       -29.3561
  88   1.0000      -1.045488       -28.4492
  89   1.0000      -1.040825       -28.3223
  90   1.0000      -1.023948       -27.8630
  91   1.0000      -0.994159       -27.0524
  92   1.0000      -0.987457       -26.8701
  93   1.0000      -0.982975       -26.7481
  94   1.0000      -0.979657       -26.6578
  95   1.0000      -0.967736       -26.3334
  96   1.0000      -0.963625       -26.2216
  97   1.0000      -0.962652       -26.1951
  98   1.0000      -0.959012       -26.0960
  99   1.0000      -0.958647       -26.0861
 100   1.0000      -0.954897       -25.9841
 101   1.0000      -0.950573       -25.8664
 102   1.0000      -0.944979       -25.7142
 103   1.0000      -0.938759       -25.5449
 104   1.0000      -0.928488       -25.2654
 105   1.0000      -0.923255       -25.1230
 106   1.0000      -0.918755       -25.0006
 107   1.0000      -0.909858       -24.7585
 108   1.0000      -0.904577       -24.6148
 109   1.0000      -0.901242       -24.5240
 110   1.0000      -0.885030       -24.0829
 111   1.0000      -0.879100       -23.9215
 112   1.0000      -0.870949       -23.6997
 113   1.0000      -0.869111       -23.6497
 114   1.0000      -0.858115       -23.3505
 115   1.0000      -0.845838       -23.0164
 116   1.0000      -0.835551       -22.7365
 117   1.0000      -0.808060       -21.9884
 118   1.0000      -0.801549       -21.8112
 119   1.0000      -0.781767       -21.2730
 120   1.0000      -0.775590       -21.1049
 121   1.0000      -0.761910       -20.7326
 122   1.0000      -0.752059       -20.4646
 123   1.0000      -0.749107       -20.3842
 124   1.0000      -0.746176       -20.3045
 125   1.0000      -0.739310       -20.1176
 126   1.0000      -0.738036       -20.0830
 127   1.0000      -0.735678       -20.0188
 128   1.0000      -0.731249       -19.8983
 129   1.0000      -0.729123       -19.8404
 130   1.0000      -0.728448       -19.8221
 131   1.0000      -0.722960       -19.6728
 132   1.0000      -0.720929       -19.6175
 133   1.0000      -0.720337       -19.6014
 134   1.0000      -0.715245       -19.4628
 135   1.0000      -0.713585       -19.4176
 136   1.0000      -0.712593       -19.3906
 137   1.0000      -0.711317       -19.3559
 138   1.0000      -0.709554       -19.3080
 139   1.0000      -0.701730       -19.0950
 140   1.0000      -0.701342       -19.0845
 141   1.0000      -0.699182       -19.0257
 142   1.0000      -0.697938       -18.9919
 143   1.0000      -0.697171       -18.9710
 144   1.0000      -0.694876       -18.9086
 145   1.0000      -0.689995       -18.7757
 146   1.0000      -0.686757       -18.6876
 147   1.0000      -0.680431       -18.5155
 148   1.0000      -0.676105       -18.3977
 149   1.0000      -0.674850       -18.3636
 150   1.0000      -0.667002       -18.1500
 151   1.0000      -0.657522       -17.8921
 152   1.0000      -0.650332       -17.6964
 153   1.0000      -0.644974       -17.5506
 154   1.0000      -0.642316       -17.4783
 155   1.0000      -0.635041       -17.2803
 156   1.0000      -0.631714       -17.1898
 157   1.0000      -0.627626       -17.0786
 158   1.0000      -0.623722       -16.9723
 159   1.0000      -0.619410       -16.8550
 160   1.0000      -0.614624       -16.7248
 161   1.0000      -0.611681       -16.6447
 162   1.0000      -0.604657       -16.4536
 163   1.0000      -0.601818       -16.3763
 164   1.0000      -0.584809       -15.9135
 165   1.0000      -0.583383       -15.8747
 166   1.0000      -0.576938       -15.6993
 167   1.0000      -0.567632       -15.4460
 168   1.0000      -0.559988       -15.2380
 169   1.0000      -0.556525       -15.1438
 170   1.0000      -0.551374       -15.0037
 171   1.0000      -0.546154       -14.8616
 172   1.0000      -0.543224       -14.7819
 173   1.0000      -0.542266       -14.7558
 174   1.0000      -0.536193       -14.5905
 175   1.0000      -0.534135       -14.5345
 176   1.0000      -0.527618       -14.3572
 177   1.0000      -0.520157       -14.1542
 178   1.0000      -0.518853       -14.1187
 179   1.0000      -0.517705       -14.0875
 180   1.0000      -0.508082       -13.8256
 181   1.0000      -0.505338       -13.7510
 182   1.0000      -0.492877       -13.4119
 183   1.0000      -0.488546       -13.2940
 184   1.0000      -0.484882       -13.1943
 185   1.0000      -0.483750       -13.1635
 186   1.0000      -0.479508       -13.0481
 187   1.0000      -0.454556       -12.3691
 188   1.0000      -0.444760       -12.1025
 189   1.0000      -0.441848       -12.0233
 190   1.0000      -0.438044       -11.9198
 191   1.0000      -0.436734       -11.8841
 192   1.0000      -0.429412       -11.6849
 193   1.0000      -0.420080       -11.4310
 194   0.0000       0.014150         0.3851
 195   0.0000       0.025306         0.6886
 196   0.0000       0.031138         0.8473
 197   0.0000       0.033839         0.9208
 198   0.0000       0.040358         1.0982

                 SPIN DOWN ORBITALS
  NO   OCC          E(Eh)            E(eV)
   0   1.0000    -261.606190     -7118.6663
   1   1.0000    -261.605273     -7118.6414
   2   1.0000     -32.110843      -873.7805
   3   1.0000     -32.107918      -873.7009
   4   1.0000     -27.589719      -750.7544
   5   1.0000     -27.589014      -750.7352
   6   1.0000     -27.588644      -750.7252
   7   1.0000     -27.586749      -750.6736
   8   1.0000     -27.586446      -750.6654
   9   1.0000     -27.586403      -750.6642
  10   1.0000     -20.689455      -562.9887
  11   1.0000     -20.639361      -561.6256
  12   1.0000     -20.619604      -561.0879
  13   1.0000     -20.618612      -561.0610
  14   1.0000     -20.611371      -560.8639
  15   1.0000     -20.606191      -560.7230
  16   1.0000     -20.602949      -560.6347
  17   1.0000     -20.602199      -560.6143
  18   1.0000     -20.601725      -560.6014
  19   1.0000     -20.586250      -560.1804
  20   1.0000     -20.578538      -559.9705
  21   1.0000     -20.562038      -559.5215
  22   1.0000     -20.531172      -558.6816
  23   1.0000     -15.750074      -428.5813
  24   1.0000     -15.745980      -428.4699
  25   1.0000     -15.737033      -428.2264
  26   1.0000     -15.728741      -428.0008
  27   1.0000     -15.691145      -426.9778
  28   1.0000     -15.685854      -426.8338
  29   1.0000     -15.671315      -426.4382
  30   1.0000     -15.668346      -426.3574
  31   1.0000     -11.457811      -311.7829
  32   1.0000     -11.433270      -311.1151
  33   1.0000     -11.429894      -311.0232
  34   1.0000     -11.417399      -310.6832
  35   1.0000     -11.416020      -310.6457
  36   1.0000     -11.409174      -310.4594
  37   1.0000     -11.379117      -309.6415
  38   1.0000     -11.374624      -309.5193
  39   1.0000     -11.369228      -309.3724
  40   1.0000     -11.363937      -309.2284
  41   1.0000     -11.358968      -309.0932
  42   1.0000     -11.358555      -309.0820
  43   1.0000     -11.353692      -308.9497
  44   1.0000     -11.352680      -308.9221
  45   1.0000     -11.347984      -308.7943
  46   1.0000     -11.346938      -308.7659
  47   1.0000     -11.337175      -308.5002
  48   1.0000     -11.328723      -308.2702
  49   1.0000     -11.323581      -308.1303
  50   1.0000     -11.315026      -307.8975
  51   1.0000     -11.310150      -307.7648
  52   1.0000     -11.283003      -307.0261
  53   1.0000      -4.186148      -113.9109
  54   1.0000      -4.181035      -113.7717
  55   1.0000      -2.709120       -73.7189
  56   1.0000      -2.707006       -73.6614
  57   1.0000      -2.705777       -73.6279
  58   1.0000      -2.703707       -73.5716
  59   1.0000      -2.702243       -73.5318
  60   1.0000      -2.700664       -73.4888
  61   1.0000      -1.498423       -40.7742
  62   1.0000      -1.485630       -40.4261
  63   1.0000      -1.481780       -40.3213
  64   1.0000      -1.472071       -40.0571
  65   1.0000      -1.466880       -39.9158
  66   1.0000      -1.459466       -39.7141
  67   1.0000      -1.456601       -39.6361
  68   1.0000      -1.449004       -39.4294
  69   1.0000      -1.443679       -39.2845
  70   1.0000      -1.418747       -38.6061
  71   1.0000      -1.404649       -38.2224
  72   1.0000      -1.394091       -37.9352
  73   1.0000      -1.386436       -37.7268
  74   1.0000      -1.351586       -36.7785
  75   1.0000      -1.338343       -36.4182
  76   1.0000      -1.321187       -35.9513
  77   1.0000      -1.299581       -35.3634
  78   1.0000      -1.293671       -35.2026
  79   1.0000      -1.284469       -34.9522
  80   1.0000      -1.275946       -34.7203
  81   1.0000      -1.140938       -31.0465
  82   1.0000      -1.130417       -30.7602
  83   1.0000      -1.130329       -30.7578
  84   1.0000      -1.119518       -30.4636
  85   1.0000      -1.109184       -30.1824
  86   1.0000      -1.075517       -29.2663
  87   1.0000      -1.043264       -28.3887
  88   1.0000      -1.039714       -28.2921
  89   1.0000      -1.016960       -27.6729
  90   1.0000      -1.000826       -27.2339
  91   1.0000      -0.955755       -26.0074
  92   1.0000      -0.952586       -25.9212
  93   1.0000      -0.943276       -25.6678
  94   1.0000      -0.932252       -25.3679
  95   1.0000      -0.924119       -25.1466
  96   1.0000      -0.920780       -25.0557
  97   1.0000      -0.910794       -24.7840
  98   1.0000      -0.905288       -24.6341
  99   1.0000      -0.903291       -24.5798
 100   1.0000      -0.884372       -24.0650
 101   1.0000      -0.879069       -23.9207
 102   1.0000      -0.871294       -23.7091
 103   1.0000      -0.870297       -23.6820
 104   1.0000      -0.858676       -23.3658
 105   1.0000      -0.851974       -23.1834
 106   1.0000      -0.836486       -22.7619
 107   1.0000      -0.811377       -22.0787
 108   1.0000      -0.800771       -21.7901
 109   1.0000      -0.780177       -21.2297
 110   1.0000      -0.772619       -21.0240
 111   1.0000      -0.761086       -20.7102
 112   1.0000      -0.750007       -20.4087
 113   1.0000      -0.747973       -20.3534
 114   1.0000      -0.742598       -20.2071
 115   1.0000      -0.738124       -20.0854
 116   1.0000      -0.734906       -19.9978
 117   1.0000      -0.730584       -19.8802
 118   1.0000      -0.729198       -19.8425
 119   1.0000      -0.727264       -19.7898
 120   1.0000      -0.724430       -19.7127
 121   1.0000      -0.721128       -19.6229
 122   1.0000      -0.720340       -19.6015
 123   1.0000      -0.715975       -19.4827
 124   1.0000      -0.714673       -19.4472
 125   1.0000      -0.712994       -19.4015
 126   1.0000      -0.711868       -19.3709
 127   1.0000      -0.705619       -19.2009
 128   1.0000      -0.701633       -19.0924
 129   1.0000      -0.699322       -19.0295
 130   1.0000      -0.698081       -18.9958
 131   1.0000      -0.696631       -18.9563
 132   1.0000      -0.692334       -18.8394
 133   1.0000      -0.690710       -18.7952
 134   1.0000      -0.686798       -18.6887
 135   1.0000      -0.682443       -18.5702
 136   1.0000      -0.675506       -18.3815
 137   1.0000      -0.674812       -18.3626
 138   1.0000      -0.668304       -18.1855
 139   1.0000      -0.665526       -18.1099
 140   1.0000      -0.656816       -17.8729
 141   1.0000      -0.645448       -17.5635
 142   1.0000      -0.641374       -17.4527
 143   1.0000      -0.638033       -17.3618
 144   1.0000      -0.630023       -17.1438
 145   1.0000      -0.625264       -17.0143
 146   1.0000      -0.623945       -16.9784
 147   1.0000      -0.618273       -16.8241
 148   1.0000      -0.615687       -16.7537
 149   1.0000      -0.611061       -16.6278
 150   1.0000      -0.608811       -16.5666
 151   1.0000      -0.606803       -16.5119
 152   1.0000      -0.603017       -16.4089
 153   1.0000      -0.599033       -16.3005
 154   1.0000      -0.594584       -16.1795
 155   1.0000      -0.584151       -15.8955
 156   1.0000      -0.579502       -15.7690
 157   1.0000      -0.568366       -15.4660
 158   1.0000      -0.555445       -15.1144
 159   1.0000      -0.554742       -15.0953
 160   1.0000      -0.544847       -14.8260
 161   1.0000      -0.543629       -14.7929
 162   1.0000      -0.540274       -14.7016
 163   1.0000      -0.534063       -14.5326
 164   1.0000      -0.531088       -14.4516
 165   1.0000      -0.527104       -14.3432
 166   1.0000      -0.519853       -14.1459
 167   1.0000      -0.519064       -14.1244
 168   1.0000      -0.513954       -13.9854
 169   1.0000      -0.509661       -13.8686
 170   1.0000      -0.505966       -13.7680
 171   1.0000      -0.490900       -13.3581
 172   1.0000      -0.483765       -13.1639
 173   1.0000      -0.483309       -13.1515
 174   1.0000      -0.480255       -13.0684
 175   1.0000      -0.471752       -12.8370
 176   1.0000      -0.450826       -12.2676
 177   1.0000      -0.444364       -12.0918
 178   1.0000      -0.439653       -11.9636
 179   1.0000      -0.432573       -11.7709
 180   1.0000      -0.429526       -11.6880
 181   1.0000      -0.420367       -11.4388
 182   1.0000      -0.382857       -10.4181
 183   0.0000       0.013510         0.3676
 184   0.0000       0.023116         0.6290
 185   0.0000       0.030787         0.8378
 186   0.0000       0.032649         0.8884
 187   0.0000       0.035226         0.9586

MULLIKEN ATOMIC CHARGES AND SPIN POPULATIONS
--------------------------------------------
   0 C :   -0.045082    0.021514
   1 N :   -0.326183    0.000257
   2 H :    0.292463    0.000467
   3 C :    0.172993   -0.012991
   4 H :    0.211334    0.000863
   5 N :   -0.262314    0.041250
   6 C :   -0.054544   -0.018208
   7 H :    0.189355    0.001011
   8 C :   -0.098951    0.020336
   9 N :   -0.320671    0.001680
  10 H :    0.288716    0.000401
  11 C :    0.171093   -0.020023
  12 H :    0.190668    0.002092
  13 N :   -0.259476    0.037739
  14 C :   -0.001486   -0.021666
  15 H :    0.176408    0.002052
  16 C :   -0.363350    0.005106
  17 H :    0.133567    0.000083
  18 H :    0.148439   -0.000600
  19 C :    0.722374    0.001153
  20 O :   -0.716893    0.029685
  21 O :   -0.616789    0.026709
  22 C :   -0.053328    0.009416
  23 N :   -0.330751    0.002019
  24 H :    0.295097    0.000279
  25 C :    0.224197   -0.010041
  26 H :    0.176260    0.000908
  27 N :   -0.356449    0.026609
  28 C :   -0.056320   -0.009745
  29 H :    0.185306    0.000657
  30 C :   -0.052697    0.008185
  31 N :   -0.331028    0.000821
  32 H :    0.293292    0.000426
  33 C :    0.186863   -0.004080
  34 H :    0.205841    0.000575
  35 N :   -0.349444    0.023855
  36 C :   -0.067322   -0.007983
  37 H :    0.228613    0.000440
  38 C :   -0.331012    0.003474
  39 H :    0.107125   -0.000219
  40 H :    0.144808    0.000076
  41 C :    0.639212   -0.001505
  42 O :   -0.663712    0.035206
  43 O :   -0.687211    0.001074
  44 Fe:    1.335437    4.699822
  45 Fe:    1.322275    4.751714
  46 O :   -1.110518    0.093688
  47 H :    0.424411    0.000686
  48 C :    0.272871   -0.002903
  49 C :    0.111574    0.003023
  50 C :    0.156970    0.000580
  51 C :    0.103809    0.000099
  52 C :    0.094446   -0.000032
  53 C :    0.117858   -0.001485
  54 O :   -0.761445    0.103402
  55 O :   -0.577167   -0.000250
  56 O :   -0.522361    0.000268
  57 O :   -0.487921    0.000096
  58 O :   -0.547305    0.000069
  59 O :   -0.572038    0.018609
  60 H :    0.109475    0.001647
  61 H :    0.104224   -0.000764
  62 H :    0.086889   -0.000319
  63 H :    0.074323    0.000001
  64 H :    0.093511   -0.000044
  65 H :    0.064462    0.000236
  66 H :    0.346131   -0.000025
  67 H :    0.334008   -0.000019
  68 H :    0.300069   -0.000012
  69 H :    0.320875   -0.000089
  70 H :    0.378059   -0.000573
  71 O :   -0.299959    0.547015
  72 O :   -0.299122    0.589261
  73 H :    0.184567   -0.001095
  74 H :    0.177337   -0.001285
  75 H :    0.123147    0.000407
  76 H :    0.191327   -0.000488
  77 H :    0.193879   -0.000358
  78 H :    0.116888   -0.000234
Sum of atomic charges         :    1.0000000

LOEWDIN ATOMIC CHARGES AND SPIN POPULATIONS
-------------------------------------------
   0 C :   -0.208090    0.011243
   1 N :    0.169893    0.000659
   2 H :    0.215020    0.000189
   3 C :   -0.193055   -0.006644
   4 H :    0.151752    0.000129
   5 N :    0.093580    0.031290
   6 C :   -0.192458   -0.007811
   7 H :    0.150246    0.000363
   8 C :   -0.209932    0.011709
   9 N :    0.170256    0.001158
  10 H :    0.210913    0.000228
  11 C :   -0.200870   -0.011365
  12 H :    0.143452    0.000243
  13 N :    0.103466    0.041888
  14 C :   -0.200899   -0.009740
  15 H :    0.147329    0.000046
  16 C :   -0.229593    0.002712
  17 H :    0.126086    0.000123
  18 H :    0.141218   -0.000251
  19 C :   -0.433372    0.002519
  20 O :   -0.031832    0.041060
  21 O :    0.024878    0.030785
  22 C :   -0.197555    0.005595
  23 N :    0.178005    0.001291
  24 H :    0.214398    0.000166
  25 C :   -0.197471   -0.005385
  26 H :    0.140798    0.000137
  27 N :    0.086120    0.032137
  28 C :   -0.213842   -0.003876
  29 H :    0.143316    0.000119
  30 C :   -0.201622    0.004749
  31 N :    0.177006    0.000893
  32 H :    0.214356    0.000211
  33 C :   -0.209069   -0.001640
  34 H :    0.145454    0.000015
  35 N :    0.075735    0.030497
  36 C :   -0.196659   -0.002904
  37 H :    0.154689    0.000094
  38 C :   -0.242940    0.001719
  39 H :    0.128823   -0.000072
  40 H :    0.128961    0.000103
  41 C :   -0.484763    0.000266
  42 O :   -0.034264    0.039937
  43 O :   -0.120099    0.000516
  44 Fe:    0.665143    4.656655
  45 Fe:    0.701091    4.693499
  46 O :   -0.367906    0.113228
  47 H :    0.173787    0.002573
  48 C :   -0.327117    0.000907
  49 C :   -0.278781    0.001932
  50 C :   -0.286626    0.000343
  51 C :   -0.277663    0.000029
  52 C :   -0.290649    0.000247
  53 C :   -0.258834   -0.000583
  54 O :   -0.191526    0.105893
  55 O :   -0.058337   -0.000110
  56 O :   -0.042699    0.000241
  57 O :   -0.040361    0.000084
  58 O :   -0.052716    0.000034
  59 O :    0.036624    0.027751
  60 H :    0.150282   -0.000518
  61 H :    0.139535   -0.000216
  62 H :    0.143243   -0.000069
  63 H :    0.139426   -0.000003
  64 H :    0.143632   -0.000030
  65 H :    0.138373   -0.000134
  66 H :    0.208304   -0.000003
  67 H :    0.204357   -0.000007
  68 H :    0.184440   -0.000005
  69 H :    0.189203   -0.000045
  70 H :    0.229275    0.000112
  71 O :   -0.207311    0.560334
  72 O :   -0.210492    0.592713
  73 H :    0.142348   -0.000097
  74 H :    0.141100   -0.000109
  75 H :    0.118220    0.000268
  76 H :    0.145722    0.000010
  77 H :    0.146431    0.000031
  78 H :    0.113119   -0.000058

  Mayer bond orders larger than 0.100000
B(  0-C ,  1-N ) :   1.1174 B(  0-C ,  6-C ) :   1.7261 B(  0-C , 73-H ) :   0.9477
B(  1-N ,  2-H ) :   0.8942 B(  1-N ,  3-C ) :   1.3097 B(  3-C ,  4-H ) :   0.9506
B(  3-C ,  5-N ) :   1.4887 B(  5-N ,  6-C ) :   1.1829 B(  5-N , 44-Fe) :   0.5851
B(  6-C ,  7-H ) :   0.9624 B(  8-C ,  9-N ) :   1.1476 B(  8-C , 14-C ) :   1.7201
B(  8-C , 74-H ) :   0.9515 B(  9-N , 10-H ) :   0.8961 B(  9-N , 11-C ) :   1.3074
B( 11-C , 12-H ) :   0.9580 B( 11-C , 13-N ) :   1.5427 B( 13-N , 14-C ) :   1.1970
B( 13-N , 44-Fe) :   0.4182 B( 14-C , 15-H ) :   0.9655 B( 16-C , 17-H ) :   0.9932
B( 16-C , 18-H ) :   0.9627 B( 16-C , 19-C ) :   0.9673 B( 16-C , 75-H ) :   0.9834
B( 19-C , 20-O ) :   1.3294 B( 19-C , 21-O ) :   1.5063 B( 20-O , 45-Fe) :   0.4196
B( 21-O , 44-Fe) :   0.3069 B( 22-C , 23-N ) :   1.1279 B( 22-C , 28-C ) :   1.7375
B( 22-C , 76-H ) :   0.9469 B( 23-N , 24-H ) :   0.8931 B( 23-N , 25-C ) :   1.3320
B( 25-C , 26-H ) :   0.9546 B( 25-C , 27-N ) :   1.4912 B( 27-N , 28-C ) :   1.1940
B( 27-N , 45-Fe) :   0.4129 B( 28-C , 29-H ) :   0.9648 B( 30-C , 31-N ) :   1.1326
B( 30-C , 36-C ) :   1.7447 B( 30-C , 77-H ) :   0.9423 B( 31-N , 32-H ) :   0.8933
B( 31-N , 33-C ) :   1.3306 B( 33-C , 34-H ) :   0.9530 B( 33-C , 35-N ) :   1.4883
B( 35-N , 36-C ) :   1.1759 B( 35-N , 45-Fe) :   0.4779 B( 36-C , 37-H ) :   0.9261
B( 38-C , 39-H ) :   0.9562 B( 38-C , 40-H ) :   0.9938 B( 38-C , 41-C ) :   0.9844
B( 38-C , 78-H ) :   0.9851 B( 41-C , 42-O ) :   1.3736 B( 41-C , 43-O ) :   1.5749
B( 42-O , 44-Fe) :   0.4113 B( 43-O , 47-H ) :   0.1258 B( 44-Fe, 46-O ) :   0.2681
B( 44-Fe, 71-O ) :   0.4214 B( 44-Fe, 72-O ) :   0.3272 B( 45-Fe, 46-O ) :   0.3675
B( 45-Fe, 54-O ) :   0.7488 B( 45-Fe, 59-O ) :   0.2317 B( 46-O , 47-H ) :   0.7426
B( 48-C , 49-C ) :   0.9347 B( 48-C , 53-C ) :   0.9946 B( 48-C , 54-O ) :   0.8413
B( 48-C , 60-H ) :   0.9936 B( 49-C , 50-C ) :   0.9732 B( 49-C , 55-O ) :   1.0754
B( 49-C , 61-H ) :   0.9712 B( 50-C , 51-C ) :   0.9758 B( 50-C , 56-O ) :   0.9878
B( 50-C , 62-H ) :   0.9976 B( 51-C , 52-C ) :   1.0149 B( 51-C , 57-O ) :   0.9783
B( 51-C , 63-H ) :   0.9849 B( 52-C , 53-C ) :   1.0007 B( 52-C , 58-O ) :   0.9527
B( 52-C , 64-H ) :   0.9917 B( 53-C , 59-O ) :   0.7048 B( 53-C , 65-H ) :   0.9861
B( 55-O , 66-H ) :   0.8795 B( 56-O , 67-H ) :   0.8802 B( 57-O , 68-H ) :   0.8924
B( 58-O , 69-H ) :   0.8809 B( 59-O , 70-H ) :   0.8412 B( 71-O , 72-O ) :   1.1664

FINAL SINGLE POINT ENERGY     -4787.436909534747

DIPOLE MOMENT
-------------
                                X             Y             Z
Electronic contribution:     -7.90738       6.10345      -7.80785
Nuclear contribution   :      2.83187      -8.56052       3.37323
                        -----------------------------------------
Total Dipole Moment    :     -5.07551      -2.45707      -4.43462
                        -----------------------------------------
Magnitude (a.u.)       :      7.17383
Magnitude (Debye)      :     18.23443

Rotational constants in cm-1:     0.002818     0.001896     0.001591
Rotational constants in MHz :    84.485992    56.848204    47.689819

                             ****ORCA TERMINATED NORMALLY****
TOTAL RUN TIME: 0 days 5 hours 11 minutes 33 seconds 930 msec
