                         Program Version 5.0.0 -  RELEASE  -
|  1> ! RHF def2-TZVPD TightSCF
|  2>
|  3> %pal
|  4>     nprocs 16
|  5> end
|  6>
|  7> %scf
|  8>     STABPerform true
|  9> end
| 10>
| 11> *xyz 2 1
| 12>  Fe                 6.20397196    1.03714637    0.17096759
| 13>  O                  8.02343961    0.99562593    0.15635557
| 14>  O                  6.24694430   -0.78162449    0.11972374
| 15>  O                  6.22607513    1.15774049   -1.64489818
| 16>  O                  4.38440248    1.01816527    0.20570458
| 17>  O                  6.16557932    2.85626904    0.21242489
| 18>  O                  6.16850601    1.06001114    1.99047834
| 19>  H                  4.06545864    1.78648828    0.68482314
| 20>  H                  4.08101507    0.21943896    0.64341723
| 21>  H                  6.97846238    3.18466572    0.60354733
| 22>  H                  5.41693185    3.14865831    0.73743487
| 23>  H                  6.90726982    0.55047930    2.33136739
| 24>  H                  5.34491271    0.67543823    2.29934360
| 25>  H                  8.36474659    1.75961228    0.62692374
| 26>  H                  8.32866067    0.19290442    0.58539903
| 27>  H                  7.07410906   -1.09285932    0.49459883
| 28>  H                  5.51267410   -1.13351772    0.62826915
| 29>  H                  6.97521418    0.66593956   -1.98916919
| 30>  H                  5.41263500    0.79176715   -1.99983292
| 31> *
| 32>
| 33>
| 34>                          ****END OF INPUT****

CARTESIAN COORDINATES (ANGSTROEM)
---------------------------------
  Fe     6.203972    1.037146    0.170968
  O      8.023440    0.995626    0.156356
  O      6.246944   -0.781624    0.119724
  O      6.226075    1.157740   -1.644898
  O      4.384402    1.018165    0.205705
  O      6.165579    2.856269    0.212425
  O      6.168506    1.060011    1.990478
  H      4.065459    1.786488    0.684823
  H      4.081015    0.219439    0.643417
  H      6.978462    3.184666    0.603547
  H      5.416932    3.148658    0.737435
  H      6.907270    0.550479    2.331367
  H      5.344913    0.675438    2.299344
  H      8.364747    1.759612    0.626924
  H      8.328661    0.192904    0.585399
  H      7.074109   -1.092859    0.494599
  H      5.512674   -1.133518    0.628269
  H      6.975214    0.665940   -1.989169
  H      5.412635    0.791767   -1.999833

 Total Charge           Charge          ....    2
 Multiplicity           Mult            ....    1
 Number of Electrons    NEL             ....   84
 Basis Dimension        Dim             ....  396

ORBITAL ENERGIES
----------------

  NO   OCC          E(Eh)            E(eV)
   0   2.0000    -261.591132     -7118.2566
   1   2.0000     -32.159490      -875.1042
   2   2.0000     -27.639366      -752.1054
   3   2.0000     -27.638632      -752.0854
   4   2.0000     -27.638018      -752.0687
   5   2.0000     -20.967082      -570.5433
   6   2.0000     -20.966435      -570.5257
   7   2.0000     -20.963701      -570.4513
   8   2.0000     -20.963537      -570.4468
   9   2.0000     -20.929879      -569.5310
  10   2.0000     -20.896913      -568.6339
  11   2.0000      -4.397910      -119.6732
  12   2.0000      -2.984947       -81.2245
  13   2.0000      -2.982923       -81.1695
  14   2.0000      -2.981261       -81.1242
  15   2.0000      -1.797227       -48.9050
  16   2.0000      -1.771090       -48.1938
  17   2.0000      -1.766496       -48.0688
  18   2.0000      -1.763341       -47.9829
  19   2.0000      -1.735997       -47.2389
  20   2.0000      -1.703315       -46.3496
  21   2.0000      -1.186956       -32.2987
  22   2.0000      -1.156663       -31.4744
  23   2.0000      -1.143360       -31.1124
  24   2.0000      -1.126634       -30.6573
  25   2.0000      -1.089951       -29.6591
  26   2.0000      -1.085318       -29.5330
  27   2.0000      -1.064766       -28.9738
  28   2.0000      -1.039033       -28.2735
  29   2.0000      -1.022698       -27.8290
  30   2.0000      -1.006273       -27.3821
  31   2.0000      -0.996919       -27.1275
  32   2.0000      -0.980520       -26.6813
  33   2.0000      -0.952204       -25.9108
  34   2.0000      -0.938257       -25.5313
  35   2.0000      -0.930505       -25.3203
  36   2.0000      -0.915974       -24.9249
  37   2.0000      -0.896033       -24.3823
  38   2.0000      -0.868213       -23.6253
  39   2.0000      -0.796316       -21.6689
  40   2.0000      -0.783085       -21.3088
  41   2.0000      -0.770938       -20.9783
  42   0.0000      -0.265897        -7.2354
  43   0.0000      -0.224879        -6.1193
  44   0.0000      -0.210746        -5.7347
  45   0.0000      -0.191647        -5.2150
  46   0.0000      -0.178957        -4.8697

MULLIKEN ATOMIC CHARGES
-----------------------
   0 Fe:    0.622306
   1 O :   -0.595335
   2 O :   -0.565598
   3 O :   -0.496498
   4 O :   -0.607586
   5 O :   -0.502626
   6 O :   -0.550828
   7 H :    0.397884
   8 H :    0.389552
   9 H :    0.377756
  10 H :    0.394644
  11 H :    0.391047
  12 H :    0.385966
  13 H :    0.401966
  14 H :    0.382809
  15 H :    0.380026
  16 H :    0.403004
  17 H :    0.400851
  18 H :    0.390660
Sum of atomic charges:    2.0000000

LOEWDIN ATOMIC CHARGES
----------------------
   0 Fe:    0.391085
   1 O :    0.009252
   2 O :    0.005060
   3 O :   -0.006694
   4 O :    0.008338
   5 O :    0.003689
   6 O :   -0.011119
   7 H :    0.137644
   8 H :    0.130633
   9 H :    0.132612
  10 H :    0.129274
  11 H :    0.136691
  12 H :    0.133388
  13 H :    0.141425
  14 H :    0.127636
  15 H :    0.129528
  16 H :    0.133862
  17 H :    0.132929
  18 H :    0.134767

  Mayer bond orders larger than 0.100000
B(  0-Fe,  1-O ) :   0.2019 B(  0-Fe,  2-O ) :   0.2494 B(  0-Fe,  3-O ) :   0.3997
B(  0-Fe,  4-O ) :   0.1890 B(  0-Fe,  5-O ) :   0.3023 B(  0-Fe,  6-O ) :   0.2802
B(  1-O , 13-H ) :   0.8482 B(  1-O , 14-H ) :   0.8568 B(  2-O , 15-H ) :   0.8473
B(  2-O , 16-H ) :   0.8402 B(  3-O ,  5-O ) :  -0.1034 B(  3-O , 17-H ) :   0.8459
B(  3-O , 18-H ) :   0.8556 B(  4-O ,  7-H ) :   0.8506 B(  4-O ,  8-H ) :   0.8483
B(  5-O ,  9-H ) :   0.8616 B(  5-O , 10-H ) :   0.8480 B(  6-O , 11-H ) :   0.8383
B(  6-O , 12-H ) :   0.8334

FINAL SINGLE POINT ENERGY     -1718.139108685548

DIPOLE MOMENT
-------------
                                X             Y             Z
Electronic contribution:      0.00576       0.37510      -0.88483
Nuclear contribution   :      0.01944      -1.57275       3.19046
                        -----------------------------------------
Total Dipole Moment    :      0.02521      -1.19765       2.30562
                        -----------------------------------------
Magnitude (a.u.)       :      2.59825
Magnitude (Debye)      :      6.60422

Rotational constants in cm-1:     0.067502     0.065853     0.064678
Rotational constants in MHz :  2023.652591  1974.224213  1938.985718

                             ****ORCA TERMINATED NORMALLY****
TOTAL RUN TIME: 0 days 0 hours 4 minutes 19 seconds 446 msec
