                         Program Version 5.0.0 -  RELEASE  -
|  1> ! UHF MP2 aug-cc-pVQZ pal8 VeryTightSCF MOread
|  2>
|  3> %moinp "BH-0.9-UHF-O.gbw"
|  4>
|  5> *xyz 0 1
|  6>  B	0.0	0.0	0.0
|  7>  H	0.9	0.0	0.0
|  8> **                         ****END OF INPUT****

CARTESIAN COORDINATES (ANGSTROEM)
---------------------------------
  B      0.000000    0.000000    0.000000
  H      0.900000    0.000000    0.000000

 Total Charge           Charge          ....    0
 Multiplicity           Mult            ....    1
 Number of Electrons    NEL             ....    6
 Basis Dimension        Dim             ....  126

ORBITAL ENERGIES
----------------
                 SPIN UP ORBITALS
  NO   OCC          E(Eh)            E(eV)
   0   1.0000      -7.637820      -207.8356
   1   1.0000      -0.733213       -19.9517
   2   1.0000      -0.368341       -10.0231
   3   0.0000       0.026830         0.7301
   4   0.0000       0.028450         0.7742
   5   0.0000       0.034196         0.9305
   6   0.0000       0.043093         1.1726
   7   0.0000       0.082147         2.2353

                 SPIN DOWN ORBITALS
  NO   OCC          E(Eh)            E(eV)
   0   1.0000      -7.637820      -207.8356
   1   1.0000      -0.733213       -19.9517
   2   1.0000      -0.368341       -10.0231
   3   0.0000       0.026830         0.7301
   4   0.0000       0.028450         0.7742
   5   0.0000       0.034196         0.9305
   6   0.0000       0.043093         1.1726
   7   0.0000       0.082147         2.2353

MULLIKEN ATOMIC CHARGES AND SPIN POPULATIONS
--------------------------------------------
   0 B :    0.009694   -0.000000
   1 H :   -0.009694    0.000000
Sum of atomic charges         :   -0.0000000

LOEWDIN ATOMIC CHARGES AND SPIN POPULATIONS
-------------------------------------------
   0 B :    0.694673   -0.000000
   1 H :   -0.694673    0.000000

  Mayer bond orders larger than 0.100000
B(  0-B ,  1-H ) :   0.8464

MP2 TOTAL ENERGY:      -25.132841751 Eh
FINAL SINGLE POINT ENERGY       -25.132841750537

DIPOLE MOMENT
-------------
                                X             Y             Z
Electronic contribution:     -0.12983       0.00000      -0.00000
Nuclear contribution   :      0.83037       0.00000       0.00000
                        -----------------------------------------
Total Dipole Moment    :      0.70055       0.00000      -0.00000
                        -----------------------------------------
Magnitude (a.u.)       :      0.70055
Magnitude (Debye)      :      1.78065

Rotational constants in cm-1:     0.000000    22.571979    22.571979
Rotational constants in MHz :     0.000000 676690.913138 676690.913138

                             ****ORCA TERMINATED NORMALLY****
TOTAL RUN TIME: 0 days 0 hours 0 minutes 3 seconds 216 msec
