                         Program Version 5.0.0 -  RELEASE  -
|  1> ! UHF aug-cc-pVQZ pal8 VeryTightSCF
|  2>
|  3> %scf
|  4> 	STABPerform	True
|  5> 	STABRestartUHFifUnstable	True
|  6> end
|  7>
|  8> *xyz 0 1
|  9>  B	0.0	0.0	0.0
| 10>  H	0.8	0.0	0.0
| 11> **                         ****END OF INPUT****

CARTESIAN COORDINATES (ANGSTROEM)
---------------------------------
  B      0.000000    0.000000    0.000000
  H      0.800000    0.000000    0.000000

 Total Charge           Charge          ....    0
 Multiplicity           Mult            ....    1
 Number of Electrons    NEL             ....    6
 Basis Dimension        Dim             ....  126

ORBITAL ENERGIES
----------------
                 SPIN UP ORBITALS
  NO   OCC          E(Eh)            E(eV)
   0   1.0000      -7.633298      -207.7126
   1   1.0000      -0.762880       -20.7590
   2   1.0000      -0.368903       -10.0384
   3   0.0000       0.026969         0.7339
   4   0.0000       0.027876         0.7585
   5   0.0000       0.034357         0.9349
   6   0.0000       0.042591         1.1590
   7   0.0000       0.081632         2.2213

                 SPIN DOWN ORBITALS
  NO   OCC          E(Eh)            E(eV)
   0   1.0000      -7.633298      -207.7126
   1   1.0000      -0.762880       -20.7590
   2   1.0000      -0.368903       -10.0384
   3   0.0000       0.026969         0.7339
   4   0.0000       0.027876         0.7585
   5   0.0000       0.034357         0.9349
   6   0.0000       0.042591         1.1590
   7   0.0000       0.081632         2.2213

MULLIKEN ATOMIC CHARGES AND SPIN POPULATIONS
--------------------------------------------
   0 B :   -0.057548   -0.000000
   1 H :    0.057548    0.000000
Sum of atomic charges         :   -0.0000000

LOEWDIN ATOMIC CHARGES AND SPIN POPULATIONS
-------------------------------------------
   0 B :    0.776840   -0.000000
   1 H :   -0.776840    0.000000

  Mayer bond orders larger than 0.100000
B(  0-B ,  1-H ) :   0.8012

FINAL SINGLE POINT ENERGY       -24.987916921520

DIPOLE MOMENT
-------------
                                X             Y             Z
Electronic contribution:     -0.00763       0.00000      -0.00000
Nuclear contribution   :      0.73811       0.00000       0.00000
                        -----------------------------------------
Total Dipole Moment    :      0.73048       0.00000      -0.00000
                        -----------------------------------------
Magnitude (a.u.)       :      0.73048
Magnitude (Debye)      :      1.85674

Rotational constants in cm-1:     0.000000    28.567661    28.567661
Rotational constants in MHz :     0.000000 856436.936940 856436.936940

                             ****ORCA TERMINATED NORMALLY****
TOTAL RUN TIME: 0 days 0 hours 0 minutes 12 seconds 688 msec
