 Gaussian 16, Revision A.03,
 Gaussian 16:  ES64L-G16RevA.03 25-Dec-2016

 ------------------------------------
 #p UHF/aug-cc-pVQZ MP2=FC guess=read
 ------------------------------------

 ----------------------
 BH UHF at 1.3 Angstrom
 ----------------------
 Symbolic Z-matrix:
 Charge =  0 Multiplicity = 1

                         Standard orientation:
 ---------------------------------------------------------------------
 Center     Atomic      Atomic             Coordinates (Angstroms)
 Number     Number       Type             X           Y           Z
 ---------------------------------------------------------------------
      1          5           0        0.000000    0.000000    0.216667
      2          1           0        0.000000    0.000000   -1.083333
 ---------------------------------------------------------------------

 SCF Done:  E(UHF) =  -25.1352449579     A.U. after    1 cycles
 E2 =    -0.6591192288D-01 EUMP2 =    -0.25201156880789D+02

 Unable to determine electronic state:  an orbital has unidentified symmetry.
 Alpha  occ. eigenvalues --   -7.68468  -0.62539  -0.37048
 Alpha virt. eigenvalues --    0.02528   0.02943   0.03360   0.04514   0.08040
 Alpha virt. eigenvalues --    0.08605   0.11304   0.13504   0.13667   0.14635
 Alpha virt. eigenvalues --    0.14640   0.15025   0.19200   0.25987   0.27348

  Beta  occ. eigenvalues --   -7.68468  -0.62539  -0.37048
  Beta virt. eigenvalues --    0.02528   0.02943   0.03360   0.04514   0.08040
  Beta virt. eigenvalues --    0.08605   0.11304   0.13504   0.13667   0.14635
  Beta virt. eigenvalues --    0.14640   0.15025   0.19200   0.25987   0.27348

 Mulliken charges and spin densities:
               1          2
     1  B    0.136204   0.000000
     2  H   -0.136204  -0.000000
 Sum of Mulliken charges =   0.00000  -0.00000

 Dipole moment (field-independent basis, Debye):
    X=             -0.0000    Y=             -0.0000    Z=             -1.0694  Tot=              1.0694
 Quadrupole moment (field-independent basis, Debye-Ang):
   XX=             -6.4872   YY=             -7.4486   ZZ=             -9.9409
   XY=             -0.0000   XZ=             -0.0000   YZ=             -0.0000

 Normal termination of Gaussian 16 at Sun May 22 10:56:51 2022.
