                         Program Version 5.0.0 -  RELEASE  -
|  1> ! UHF aug-cc-pVQZ pal8 VeryTightSCF
|  2>
|  3> %scf
|  4> 	STABPerform	True
|  5> 	STABRestartUHFifUnstable	True
|  6> end
|  7>
|  8> *xyz 0 1
|  9>  B	0.0	0.0	0.0
| 10>  H	1.4	0.0	0.0
| 11> **                         ****END OF INPUT****

CARTESIAN COORDINATES (ANGSTROEM)
---------------------------------
  B      0.000000    0.000000    0.000000
  H      1.400000    0.000000    0.000000

 Total Charge           Charge          ....    0
 Multiplicity           Mult            ....    1
 Number of Electrons    NEL             ....    6
 Basis Dimension        Dim             ....  126

ORBITAL ENERGIES
----------------
                 SPIN UP ORBITALS
  NO   OCC          E(Eh)            E(eV)
   0   1.0000      -7.697808      -209.4680
   1   1.0000      -0.605631       -16.4800
   2   1.0000      -0.370173       -10.0729
   3   0.0000       0.024480         0.6661
   4   0.0000       0.028882         0.7859
   5   0.0000       0.033573         0.9136
   6   0.0000       0.045826         1.2470
   7   0.0000       0.079093         2.1522

                 SPIN DOWN ORBITALS
  NO   OCC          E(Eh)            E(eV)
   0   1.0000      -7.697808      -209.4680
   1   1.0000      -0.605631       -16.4800
   2   1.0000      -0.370173       -10.0729
   3   0.0000       0.024480         0.6661
   4   0.0000       0.028882         0.7859
   5   0.0000       0.033573         0.9136
   6   0.0000       0.045826         1.2470
   7   0.0000       0.079093         2.1522

MULLIKEN ATOMIC CHARGES AND SPIN POPULATIONS
--------------------------------------------
   0 B :    0.147161   -0.000000
   1 H :   -0.147161    0.000000
Sum of atomic charges         :   -0.0000000

LOEWDIN ATOMIC CHARGES AND SPIN POPULATIONS
-------------------------------------------
   0 B :    0.427196   -0.000000
   1 H :   -0.427196    0.000000

  Mayer bond orders larger than 0.100000
B(  0-B ,  1-H ) :   0.9282

FINAL SINGLE POINT ENERGY       -25.127264626742

DIPOLE MOMENT
-------------
                                X             Y             Z
Electronic contribution:     -0.97758       0.00000       0.00000
Nuclear contribution   :      1.29169       0.00000       0.00000
                        -----------------------------------------
Total Dipole Moment    :      0.31411       0.00000       0.00000
                        -----------------------------------------
Magnitude (a.u.)       :      0.31411
Magnitude (Debye)      :      0.79840

Rotational constants in cm-1:     0.000000     9.328216     9.328216
Rotational constants in MHz :     0.000000 279652.877368 279652.877368

                             ****ORCA TERMINATED NORMALLY****
TOTAL RUN TIME: 0 days 0 hours 0 minutes 13 seconds 466 msec
