 Gaussian 16, Revision A.03,
 Gaussian 16:  ES64L-G16RevA.03 25-Dec-2016

 ------------------------------------
 #p UHF/aug-cc-pVQZ MP2=FC guess=read
 ------------------------------------

 ----------------------
 BH UHF at 1.4 Angstrom
 ----------------------
 Symbolic Z-matrix:
 Charge =  0 Multiplicity = 1

                         Standard orientation:
 ---------------------------------------------------------------------
 Center     Atomic      Atomic             Coordinates (Angstroms)
 Number     Number       Type             X           Y           Z
 ---------------------------------------------------------------------
      1          5           0        0.000000    0.000000    0.233333
      2          1           0        0.000000    0.000000   -1.166667
 ---------------------------------------------------------------------

 SCF Done:  E(UHF) =  -25.1272644311     A.U. after    1 cycles
 E2 =    -0.6688144914D-01 EUMP2 =    -0.25194145880224D+02

 Unable to determine electronic state:  an orbital has unidentified symmetry.
 Alpha  occ. eigenvalues --   -7.69780  -0.60563  -0.37017
 Alpha virt. eigenvalues --    0.02448   0.02888   0.03357   0.04583   0.07909
 Alpha virt. eigenvalues --    0.08418   0.11038   0.13622   0.13754   0.14608
 Alpha virt. eigenvalues --    0.14613   0.14823   0.19624   0.25343   0.27224

  Beta  occ. eigenvalues --   -7.69780  -0.60563  -0.37017
  Beta virt. eigenvalues --    0.02448   0.02888   0.03357   0.04583   0.07909
  Beta virt. eigenvalues --    0.08418   0.11038   0.13622   0.13754   0.14608
  Beta virt. eigenvalues --    0.14613   0.14823   0.19624   0.25343   0.27224

 Mulliken charges and spin densities:
               1          2
     1  B    0.147143   0.000000
     2  H   -0.147143   0.000000
 Sum of Mulliken charges =   0.00000   0.00000

 Dipole moment (field-independent basis, Debye):
    X=              0.0000    Y=              0.0000    Z=             -0.7984  Tot=              0.7984
 Quadrupole moment (field-independent basis, Debye-Ang):
   XX=             -6.6051   YY=             -7.4940   ZZ=            -10.1590
   XY=              0.0000   XZ=             -0.0000   YZ=              0.0000

 Normal termination of Gaussian 16 at Sun May 22 10:56:53 2022.
