                         Program Version 5.0.0 -  RELEASE  -
|  1> ! UHF MP2 aug-cc-pVQZ pal8 VeryTightSCF MOread
|  2>
|  3> %moinp "BH-1.6-UHF-O.gbw"
|  4>
|  5> *xyz 0 1
|  6>  B	0.0	0.0	0.0
|  7>  H	1.6	0.0	0.0
|  8> **                         ****END OF INPUT****

CARTESIAN COORDINATES (ANGSTROEM)
---------------------------------
  B      0.000000    0.000000    0.000000
  H      1.600000    0.000000    0.000000

 Total Charge           Charge          ....    0
 Multiplicity           Mult            ....    1
 Number of Electrons    NEL             ....    6
 Basis Dimension        Dim             ....  126

ORBITAL ENERGIES
----------------
                 SPIN UP ORBITALS
  NO   OCC          E(Eh)            E(eV)
   0   1.0000      -7.723500      -210.1671
   1   1.0000      -0.576966       -15.7001
   2   1.0000      -0.366161        -9.9637
   3   0.0000       0.022123         0.6020
   4   0.0000       0.026642         0.7250
   5   0.0000       0.033253         0.9049
   6   0.0000       0.047725         1.2987
   7   0.0000       0.075668         2.0590

                 SPIN DOWN ORBITALS
  NO   OCC          E(Eh)            E(eV)
   0   1.0000      -7.723500      -210.1671
   1   1.0000      -0.576966       -15.7001
   2   1.0000      -0.366161        -9.9637
   3   0.0000       0.022123         0.6020
   4   0.0000       0.026642         0.7250
   5   0.0000       0.033253         0.9049
   6   0.0000       0.047725         1.2987
   7   0.0000       0.075668         2.0590

MULLIKEN ATOMIC CHARGES AND SPIN POPULATIONS
--------------------------------------------
   0 B :    0.156215   -0.000000
   1 H :   -0.156215    0.000000
Sum of atomic charges         :    0.0000000

LOEWDIN ATOMIC CHARGES AND SPIN POPULATIONS
-------------------------------------------
   0 B :    0.355375   -0.000000
   1 H :   -0.355375    0.000000

  Mayer bond orders larger than 0.100000
B(  0-B ,  1-H ) :   0.9596

MP2 TOTAL ENERGY:      -25.173017296 Eh
FINAL SINGLE POINT ENERGY       -25.173017296421

DIPOLE MOMENT
-------------
                                X             Y             Z
Electronic contribution:     -1.41202      -0.00000       0.00000
Nuclear contribution   :      1.47622       0.00000       0.00000
                        -----------------------------------------
Total Dipole Moment    :      0.06420      -0.00000       0.00000
                        -----------------------------------------
Magnitude (a.u.)       :      0.06420
Magnitude (Debye)      :      0.16319

Rotational constants in cm-1:     0.000000     7.141915     7.141915
Rotational constants in MHz :     0.000000 214109.234235 214109.234235

                             ****ORCA TERMINATED NORMALLY****
TOTAL RUN TIME: 0 days 0 hours 0 minutes 3 seconds 271 msec
