 Gaussian 16, Revision A.03,
 Gaussian 16:  ES64L-G16RevA.03 25-Dec-2016

 ------------------------------------
 #p UHF/aug-cc-pVQZ MP2=FC guess=read
 ------------------------------------

 ----------------------
 BH UHF at 1.1 Angstrom
 ----------------------
 Symbolic Z-matrix:
 Charge =  0 Multiplicity = 1

                         Standard orientation:
 ---------------------------------------------------------------------
 Center     Atomic      Atomic             Coordinates (Angstroms)
 Number     Number       Type             X           Y           Z
 ---------------------------------------------------------------------
      1          5           0        0.000000    0.000000    0.183333
      2          1           0        0.000000    0.000000   -0.916667
 ---------------------------------------------------------------------

 SCF Done:  E(UHF) =  -25.1320902123     A.U. after    1 cycles
 E2 =    -0.6454614919D-01 EUMP2 =    -0.25196636361492D+02

 Unable to determine electronic state:  an orbital has unidentified symmetry.
 Alpha  occ. eigenvalues --   -7.65888  -0.67467  -0.36933
 Alpha virt. eigenvalues --    0.02632   0.02940   0.03381   0.04406   0.08201
 Alpha virt. eigenvalues --    0.08878   0.11804   0.13266   0.13497   0.14665
 Alpha virt. eigenvalues --    0.14671   0.15015   0.18392   0.27126   0.27509

  Beta  occ. eigenvalues --   -7.65888  -0.67467  -0.36933
  Beta virt. eigenvalues --    0.02632   0.02940   0.03381   0.04406   0.08201
  Beta virt. eigenvalues --    0.08878   0.11804   0.13266   0.13497   0.14665
  Beta virt. eigenvalues --    0.14671   0.15015   0.18392   0.27126   0.27509

 Mulliken charges and spin densities:
               1          2
     1  B    0.089851  -0.000000
     2  H   -0.089851   0.000000
 Sum of Mulliken charges =   0.00000  -0.00000

 Dipole moment (field-independent basis, Debye):
    X=              0.0000    Y=             -0.0000    Z=             -1.5030  Tot=              1.5030
 Quadrupole moment (field-independent basis, Debye-Ang):
   XX=             -6.2670   YY=             -7.3702   ZZ=             -9.5552
   XY=              0.0000   XZ=             -0.0000   YZ=              0.0000

 Normal termination of Gaussian 16 at Sun May 22 10:57:09 2022.
