                         Program Version 5.0.0 -  RELEASE  -
|  1> ! UHF MP2 aug-cc-pVQZ pal8 VeryTightSCF MOread
|  2>
|  3> %moinp "BH-1.2-UHF-O.gbw"
|  4>
|  5> *xyz 0 1
|  6>  B	0.0	0.0	0.0
|  7>  H	1.2	0.0	0.0
|  8> **                         ****END OF INPUT****

CARTESIAN COORDINATES (ANGSTROEM)
---------------------------------
  B      0.000000    0.000000    0.000000
  H      1.200000    0.000000    0.000000

 Total Charge           Charge          ....    0
 Multiplicity           Mult            ....    1
 Number of Electrons    NEL             ....    6
 Basis Dimension        Dim             ....  126

ORBITAL ENERGIES
----------------
                 SPIN UP ORBITALS
  NO   OCC          E(Eh)            E(eV)
   0   1.0000      -7.671597      -208.7548
   1   1.0000      -0.648524       -17.6472
   2   1.0000      -0.370075       -10.0703
   3   0.0000       0.025881         0.7043
   4   0.0000       0.029586         0.8051
   5   0.0000       0.033665         0.9161
   6   0.0000       0.044564         1.2127
   7   0.0000       0.081377         2.2144

                 SPIN DOWN ORBITALS
  NO   OCC          E(Eh)            E(eV)
   0   1.0000      -7.671597      -208.7548
   1   1.0000      -0.648524       -17.6472
   2   1.0000      -0.370075       -10.0703
   3   0.0000       0.025881         0.7043
   4   0.0000       0.029586         0.8051
   5   0.0000       0.033665         0.9161
   6   0.0000       0.044564         1.2127
   7   0.0000       0.081377         2.2144

MULLIKEN ATOMIC CHARGES AND SPIN POPULATIONS
--------------------------------------------
   0 B :    0.118279    0.000000
   1 H :   -0.118279   -0.000000
Sum of atomic charges         :    0.0000000

LOEWDIN ATOMIC CHARGES AND SPIN POPULATIONS
-------------------------------------------
   0 B :    0.516640    0.000000
   1 H :   -0.516640   -0.000000

  Mayer bond orders larger than 0.100000
B(  0-B ,  1-H ) :   0.8945

MP2 TOTAL ENERGY:      -25.203141720 Eh
FINAL SINGLE POINT ENERGY       -25.203141720469

DIPOLE MOMENT
-------------
                                X             Y             Z
Electronic contribution:     -0.59373       0.00000       0.00000
Nuclear contribution   :      1.10716       0.00000       0.00000
                        -----------------------------------------
Total Dipole Moment    :      0.51343       0.00000       0.00000
                        -----------------------------------------
Magnitude (a.u.)       :      0.51343
Magnitude (Debye)      :      1.30504

Rotational constants in cm-1:     0.000000    12.696738    12.696738
Rotational constants in MHz :     0.000000 380638.638640 380638.638640

                             ****ORCA TERMINATED NORMALLY****
TOTAL RUN TIME: 0 days 0 hours 0 minutes 3 seconds 264 msec
