                         Program Version 5.0.0 -  RELEASE  -
|  1> ! UHF MP2 aug-cc-pVQZ pal8 VeryTightSCF MOread
|  2>
|  3> %moinp "BH-2.0-UHF-O.gbw"
|  4>
|  5> *xyz 0 1
|  6>  B	0.0	0.0	0.0
|  7>  H	2.0	0.0	0.0
|  8> **                         ****END OF INPUT****

CARTESIAN COORDINATES (ANGSTROEM)
---------------------------------
  B      0.000000    0.000000    0.000000
  H      2.000000    0.000000    0.000000

 Total Charge           Charge          ....    0
 Multiplicity           Mult            ....    1
 Number of Electrons    NEL             ....    6
 Basis Dimension        Dim             ....  126

ORBITAL ENERGIES
----------------
                 SPIN UP ORBITALS
  NO   OCC          E(Eh)            E(eV)
   0   1.0000      -7.744874      -210.7487
   1   1.0000      -0.564840       -15.3701
   2   1.0000      -0.338333        -9.2065
   3   0.0000       0.016928         0.4606
   4   0.0000       0.018764         0.5106
   5   0.0000       0.031623         0.8605
   6   0.0000       0.049269         1.3407
   7   0.0000       0.069901         1.9021

                 SPIN DOWN ORBITALS
  NO   OCC          E(Eh)            E(eV)
   0   1.0000      -7.737484      -210.5476
   1   1.0000      -0.533616       -14.5204
   2   1.0000      -0.383743       -10.4422
   3   0.0000       0.019422         0.5285
   4   0.0000       0.022043         0.5998
   5   0.0000       0.032363         0.8806
   6   0.0000       0.053540         1.4569
   7   0.0000       0.072863         1.9827

MULLIKEN ATOMIC CHARGES AND SPIN POPULATIONS
--------------------------------------------
   0 B :    0.132966    0.651672
   1 H :   -0.132966   -0.651672
Sum of atomic charges         :   -0.0000000

LOEWDIN ATOMIC CHARGES AND SPIN POPULATIONS
-------------------------------------------
   0 B :    0.256065    0.367205
   1 H :   -0.256065   -0.367205

  Mayer bond orders larger than 0.100000
B(  0-B ,  1-H ) :   0.5632

MP2 TOTAL ENERGY:      -25.119204501 Eh
FINAL SINGLE POINT ENERGY       -25.119204501177

DIPOLE MOMENT
-------------
                                X             Y             Z
Electronic contribution:     -2.15755       0.01548       0.00676
Nuclear contribution   :      1.84527       0.00000       0.00000
                        -----------------------------------------
Total Dipole Moment    :     -0.31228       0.01548       0.00676
                        -----------------------------------------
Magnitude (a.u.)       :      0.31274
Magnitude (Debye)      :      0.79492

Rotational constants in cm-1:     0.000000     4.570826     4.570826
Rotational constants in MHz :     0.000000 137029.909910 137029.909910

                             ****ORCA TERMINATED NORMALLY****
TOTAL RUN TIME: 0 days 0 hours 0 minutes 3 seconds 229 msec
