 Gaussian 16, Revision A.03,
 Gaussian 16:  ES64L-G16RevA.03 25-Dec-2016

 ------------------------------------
 #p UHF/aug-cc-pVQZ MP2=FC guess=read
 ------------------------------------

 ----------------------
 BH UHF at 3.8 Angstrom
 ----------------------
 Symbolic Z-matrix:
 Charge =  0 Multiplicity = 1

                         Standard orientation:
 ---------------------------------------------------------------------
 Center     Atomic      Atomic             Coordinates (Angstroms)
 Number     Number       Type             X           Y           Z
 ---------------------------------------------------------------------
      1          5           0        0.000000    0.000000    0.633333
      2          1           0        0.000000    0.000000   -3.166667
 ---------------------------------------------------------------------

 SCF Done:  E(UHF) =  -25.0330661832     A.U. after    1 cycles
 E2 =    -0.4760609247D-01 EUMP2 =    -0.25080672275683D+02

 The electronic state is 1-SG.
 Alpha  occ. eigenvalues --   -7.68739  -0.49334  -0.44667
 Alpha virt. eigenvalues --    0.02695   0.02695   0.04237   0.05361   0.07915
 Alpha virt. eigenvalues --    0.08390   0.08390   0.11519   0.14279   0.14279
 Alpha virt. eigenvalues --    0.14553   0.14553   0.18236   0.21611   0.21611

  Beta  occ. eigenvalues --   -7.70241  -0.54580  -0.31905
  Beta virt. eigenvalues --    0.02188   0.02334   0.02334   0.04903   0.07692
  Beta virt. eigenvalues --    0.07692   0.07893   0.10723   0.14364   0.14364
  Beta virt. eigenvalues --    0.14548   0.14548   0.18616   0.23112   0.23112

 Mulliken charges and spin densities:
               1          2
     1  B    0.002017  -1.000233
     2  H   -0.002017   1.000233
 Sum of Mulliken charges =  -0.00000  -0.00000

 Dipole moment (field-independent basis, Debye):
    X=              0.0000    Y=              0.0000    Z=              0.0591  Tot=              0.0591
 Quadrupole moment (field-independent basis, Debye-Ang):
   XX=             -7.3101   YY=             -7.3101   ZZ=            -10.8763
   XY=              0.0000   XZ=              0.0000   YZ=              0.0000

 Normal termination of Gaussian 16 at Sun May 22 11:11:38 2022.
