                         Program Version 5.0.0 -  RELEASE  -
|  1> ! UHF MP2 aug-cc-pVQZ pal8 VeryTightSCF MOread
|  2>
|  3> %moinp "BH-3.4-UHF-O.gbw"
|  4>
|  5> *xyz 0 1
|  6>  B	0.0	0.0	0.0
|  7>  H	3.4	0.0	0.0
|  8> **                         ****END OF INPUT****

CARTESIAN COORDINATES (ANGSTROEM)
---------------------------------
  B      0.000000    0.000000    0.000000
  H      3.400000    0.000000    0.000000

 Total Charge           Charge          ....    0
 Multiplicity           Mult            ....    1
 Number of Electrons    NEL             ....    6
 Basis Dimension        Dim             ....  126

ORBITAL ENERGIES
----------------
                 SPIN UP ORBITALS
  NO   OCC          E(Eh)            E(eV)
   0   1.0000      -7.689031      -209.2292
   1   1.0000      -0.491299       -13.3689
   2   1.0000      -0.446617       -12.1531
   3   0.0000       0.026538         0.7221
   4   0.0000       0.026538         0.7221
   5   0.0000       0.041092         1.1182
   6   0.0000       0.054511         1.4833
   7   0.0000       0.081791         2.2257

                 SPIN DOWN ORBITALS
  NO   OCC          E(Eh)            E(eV)
   0   1.0000      -7.703827      -209.6318
   1   1.0000      -0.546430       -14.8691
   2   1.0000      -0.319407        -8.6915
   3   0.0000       0.022996         0.6258
   4   0.0000       0.022996         0.6258
   5   0.0000       0.024141         0.6569
   6   0.0000       0.048103         1.3089
   7   0.0000       0.076486         2.0813

MULLIKEN ATOMIC CHARGES AND SPIN POPULATIONS
--------------------------------------------
   0 B :    0.005123   -0.998693
   1 H :   -0.005123    0.998693
Sum of atomic charges         :   -0.0000000

LOEWDIN ATOMIC CHARGES AND SPIN POPULATIONS
-------------------------------------------
   0 B :   -0.002667   -0.897134
   1 H :    0.002667    0.897134

MP2 TOTAL ENERGY:      -25.081356945 Eh
FINAL SINGLE POINT ENERGY       -25.081356945076

DIPOLE MOMENT
-------------
                                X             Y             Z
Electronic contribution:     -3.18196       0.00000       0.00000
Nuclear contribution   :      3.13696       0.00000       0.00000
                        -----------------------------------------
Total Dipole Moment    :     -0.04500       0.00000       0.00000
                        -----------------------------------------
Magnitude (a.u.)       :      0.04500
Magnitude (Debye)      :      0.11437

Rotational constants in cm-1:     0.000000     1.581601     1.581601
Rotational constants in MHz :     0.000000 47415.193741 47415.193741

                             ****ORCA TERMINATED NORMALLY****
TOTAL RUN TIME: 0 days 0 hours 0 minutes 3 seconds 74 msec
