                         Program Version 5.0.0 -  RELEASE  -
|  1> ! UHF MP2 aug-cc-pVQZ pal8 VeryTightSCF MOread
|  2>
|  3> %moinp "BH-4.6-UHF-O.gbw"
|  4>
|  5> *xyz 0 1
|  6>  B	0.0	0.0	0.0
|  7>  H	4.6	0.0	0.0
|  8> **                         ****END OF INPUT****

CARTESIAN COORDINATES (ANGSTROEM)
---------------------------------
  B      0.000000    0.000000    0.000000
  H      4.600000    0.000000    0.000000

 Total Charge           Charge          ....    0
 Multiplicity           Mult            ....    1
 Number of Electrons    NEL             ....    6
 Basis Dimension        Dim             ....  126

ORBITAL ENERGIES
----------------
                 SPIN UP ORBITALS
  NO   OCC          E(Eh)            E(eV)
   0   1.0000      -7.701623      -209.5718
   1   1.0000      -0.545403       -14.8412
   2   1.0000      -0.318841        -8.6761
   3   0.0000       0.018890         0.5140
   4   0.0000       0.023588         0.6419
   5   0.0000       0.023588         0.6419
   6   0.0000       0.050580         1.3764
   7   0.0000       0.074219         2.0196

                 SPIN DOWN ORBITALS
  NO   OCC          E(Eh)            E(eV)
   0   1.0000      -7.686491      -209.1601
   1   1.0000      -0.496146       -13.5008
   2   1.0000      -0.446369       -12.1463
   3   0.0000       0.027291         0.7426
   4   0.0000       0.027291         0.7426
   5   0.0000       0.043592         1.1862
   6   0.0000       0.051612         1.4044
   7   0.0000       0.075381         2.0512

MULLIKEN ATOMIC CHARGES AND SPIN POPULATIONS
--------------------------------------------
   0 B :    0.000281    1.000402
   1 H :   -0.000281   -1.000402
Sum of atomic charges         :    0.0000000

LOEWDIN ATOMIC CHARGES AND SPIN POPULATIONS
-------------------------------------------
   0 B :   -0.008678    0.982887
   1 H :    0.008678   -0.982887

MP2 TOTAL ENERGY:      -25.080284475 Eh
FINAL SINGLE POINT ENERGY       -25.080284474726

DIPOLE MOMENT
-------------
                                X             Y             Z
Electronic contribution:     -4.25181      -0.00000       0.00000
Nuclear contribution   :      4.24413       0.00000       0.00000
                        -----------------------------------------
Total Dipole Moment    :     -0.00769      -0.00000       0.00000
                        -----------------------------------------
Magnitude (a.u.)       :      0.00769
Magnitude (Debye)      :      0.01953

Rotational constants in cm-1:     0.000000     0.864050     0.864050
Rotational constants in MHz :     0.000000 25903.574652 25903.574652

                             ****ORCA TERMINATED NORMALLY****
TOTAL RUN TIME: 0 days 0 hours 0 minutes 2 seconds 910 msec
