 Gaussian 16, Revision A.03,
 Gaussian 16:  ES64L-G16RevA.03 25-Dec-2016

 ---------------------------------------
 #p UHF/aug-cc-pVQZ guess=mix stable=opt
 ---------------------------------------

 ----------------------
 BH UHF at 5.2 Angstrom
 ----------------------
 Symbolic Z-matrix:
 Charge =  0 Multiplicity = 1

                         Standard orientation:
 ---------------------------------------------------------------------
 Center     Atomic      Atomic             Coordinates (Angstroms)
 Number     Number       Type             X           Y           Z
 ---------------------------------------------------------------------
      1          5           0        0.000000    0.000000    0.866667
      2          1           0        0.000000    0.000000   -4.333333
 ---------------------------------------------------------------------

 SCF Done:  E(UHF) =  -25.0329373629     A.U. after   17 cycles

 The electronic state is 1-SG.
 Alpha  occ. eigenvalues --   -7.68635  -0.49731  -0.44628
 Alpha virt. eigenvalues --    0.02739   0.02739   0.04334   0.05080   0.07343
 Alpha virt. eigenvalues --    0.08427   0.08427   0.11845   0.14320   0.14320
 Alpha virt. eigenvalues --    0.14573   0.14573   0.15630   0.19070   0.19070

  Beta  occ. eigenvalues --   -7.70150  -0.54533  -0.31880
  Beta virt. eigenvalues --    0.01750   0.02364   0.02364   0.05149   0.07066
  Beta virt. eigenvalues --    0.07729   0.07729   0.11098   0.14278   0.14278
  Beta virt. eigenvalues --    0.14565   0.14565   0.15955   0.20609   0.20609

 Mulliken charges and spin densities:
               1          2
     1  B    0.000154  -1.000078
     2  H   -0.000154   1.000078
 Sum of Mulliken charges =  -0.00000   0.00000

 Dipole moment (field-independent basis, Debye):
    X=              0.0000    Y=             -0.0000    Z=              0.0105  Tot=              0.0105
 Quadrupole moment (field-independent basis, Debye-Ang):
   XX=             -7.3054   YY=             -7.3054   ZZ=            -10.7358
   XY=              0.0000   XZ=              0.0000   YZ=              0.0000

 Normal termination of Gaussian 16 at Sun May 22 10:56:03 2022.
