 Gaussian 16, Revision A.03,
 Gaussian 16:  ES64L-G16RevA.03 25-Dec-2016

 ---------------------------------------
 #p UHF/aug-cc-pVQZ guess=mix stable=opt
 ---------------------------------------

 ----------------------
 BH UHF at 5.6 Angstrom
 ----------------------
 Symbolic Z-matrix:
 Charge =  0 Multiplicity = 1

                         Standard orientation:
 ---------------------------------------------------------------------
 Center     Atomic      Atomic             Coordinates (Angstroms)
 Number     Number       Type             X           Y           Z
 ---------------------------------------------------------------------
      1          5           0        0.000000    0.000000    0.933333
      2          1           0        0.000000    0.000000   -4.666667
 ---------------------------------------------------------------------

 SCF Done:  E(UHF) =  -25.0329344110     A.U. after   17 cycles

 The electronic state is 1-SG.
 Alpha  occ. eigenvalues --   -7.68632  -0.49784  -0.44626
 Alpha virt. eigenvalues --    0.02743   0.02743   0.04273   0.05070   0.07237
 Alpha virt. eigenvalues --    0.08427   0.08427   0.11963   0.14486   0.14486
 Alpha virt. eigenvalues --    0.14574   0.14574   0.14905   0.18534   0.18534

  Beta  occ. eigenvalues --   -7.70147  -0.54531  -0.31878
  Beta virt. eigenvalues --    0.01683   0.02366   0.02366   0.05203   0.06827
  Beta virt. eigenvalues --    0.07729   0.07729   0.11268   0.14371   0.14371
  Beta virt. eigenvalues --    0.14566   0.14566   0.15158   0.20138   0.20138

 Mulliken charges and spin densities:
               1          2
     1  B    0.000108  -0.999967
     2  H   -0.000108   0.999967
 Sum of Mulliken charges =  -0.00000  -0.00000

 Dipole moment (field-independent basis, Debye):
    X=              0.0000    Y=              0.0000    Z=              0.0074  Tot=              0.0074
 Quadrupole moment (field-independent basis, Debye-Ang):
   XX=             -7.3047   YY=             -7.3047   ZZ=            -10.7219
   XY=             -0.0000   XZ=              0.0000   YZ=              0.0000

 Normal termination of Gaussian 16 at Sun May 22 10:56:31 2022.
