 Gaussian 16, Revision A.03,
 Gaussian 16:  ES64L-G16RevA.03 25-Dec-2016

 ------------------------------------
 #p UHF/aug-cc-pVQZ MP2=FC guess=read
 ------------------------------------

 ----------------------
 BH UHF at 5.8 Angstrom
 ----------------------
 Symbolic Z-matrix:
 Charge =  0 Multiplicity = 1

                         Standard orientation:
 ---------------------------------------------------------------------
 Center     Atomic      Atomic             Coordinates (Angstroms)
 Number     Number       Type             X           Y           Z
 ---------------------------------------------------------------------
      1          5           0        0.000000    0.000000    0.966667
      2          1           0        0.000000    0.000000   -4.833333
 ---------------------------------------------------------------------

 SCF Done:  E(UHF) =  -25.0329337635     A.U. after    1 cycles
 E2 =    -0.4726132838D-01 EUMP2 =    -0.25080195091895D+02

 The electronic state is 1-SG.
 Alpha  occ. eigenvalues --   -7.68632  -0.49805  -0.44625
 Alpha virt. eigenvalues --    0.02744   0.02744   0.04234   0.05073   0.07189
 Alpha virt. eigenvalues --    0.08427   0.08427   0.12013   0.14575   0.14575
 Alpha virt. eigenvalues --    0.14583   0.14583   0.14631   0.18301   0.18301

  Beta  occ. eigenvalues --   -7.70146  -0.54531  -0.31878
  Beta virt. eigenvalues --    0.01655   0.02366   0.02366   0.05228   0.06707
  Beta virt. eigenvalues --    0.07728   0.07728   0.11360   0.14428   0.14428
  Beta virt. eigenvalues --    0.14567   0.14567   0.14842   0.19942   0.19942

 Mulliken charges and spin densities:
               1          2
     1  B    0.000083  -0.999942
     2  H   -0.000083   0.999942
 Sum of Mulliken charges =  -0.00000   0.00000

 Dipole moment (field-independent basis, Debye):
    X=              0.0000    Y=              0.0000    Z=              0.0063  Tot=              0.0063
 Quadrupole moment (field-independent basis, Debye-Ang):
   XX=             -7.3044   YY=             -7.3044   ZZ=            -10.7161
   XY=             -0.0000   XZ=              0.0000   YZ=              0.0000

 Normal termination of Gaussian 16 at Sun May 22 11:12:15 2022.
