                         Program Version 5.0.0 -  RELEASE  -
|  1> ! Opt Freq UHF def2-SVP TightSCF NoTRAH
|  2>
|  3> %pal
|  4>     nprocs 16
|  5> end
|  6>
|  7> *xyz 2 5
|  8> Fe -0.64257176050830  0.51803920561668  0.11515259480577
|  9>  O  0.11174687498777  2.15027362958097 -0.78003307659188
| 10>  H  0.70766775417542  2.71590643817051 -0.25346860209865
| 11>  O -1.31193844940493 -0.30254437211926 -1.59153974321848
| 12>  H -1.93648366806763  0.13093135988795 -2.20090760771949
| 13>  O  0.02720918798052  1.33940572113505  1.82122676893196
| 14>  H  0.65258765622944  0.90686870076571  2.43040311553976
| 15>  O -1.39648053530566 -1.11444807905756  1.01023916292248
| 16>  H -1.99331392681300 -1.67940484230818  0.48397490889195
| 17>  O -2.28682023617329  1.63340828371306  0.41005372492049
| 18>  H -2.35377021104600  2.47291065207153 -0.08301808819513
| 19>  O  1.00194372931180 -0.59712335622834 -0.17950165163229
| 20>  H  1.06807766676477 -1.43758842942053  0.31202545851205
| 21>  H -3.18922098471738  1.27280247171927  0.48036417156888
| 22>  H -0.66521991563992 -0.78352006296416 -2.14179468111308
| 23>  H  1.90454646424149 -0.23678289755293 -0.24845043594753
| 24>  H  0.43776650602076  2.17113603799071 -1.69794346797289
| 25>  H -0.61875604533523  1.82123954705219  2.37159866149671
| 26>  H -1.72126010670064 -1.13595000805262  1.92856878689935
| 27> *
| 28>
| 29>                          ****END OF INPUT****
 Total Charge           Charge          ....    2
 Multiplicity           Mult            ....    5
 Number of Electrons    NEL             ....   84
FINAL SINGLE POINT ENERGY     -1717.708498409601
FINAL SINGLE POINT ENERGY     -1717.732026464172
FINAL SINGLE POINT ENERGY     -1717.747702681840
FINAL SINGLE POINT ENERGY     -1717.756908551983
FINAL SINGLE POINT ENERGY     -1717.760174396489
FINAL SINGLE POINT ENERGY     -1717.761527739007
FINAL SINGLE POINT ENERGY     -1717.762376976568
FINAL SINGLE POINT ENERGY     -1717.763075422957
FINAL SINGLE POINT ENERGY     -1717.763707974612
FINAL SINGLE POINT ENERGY     -1717.764243197829
FINAL SINGLE POINT ENERGY     -1717.764627938358
FINAL SINGLE POINT ENERGY     -1717.764859321511
FINAL SINGLE POINT ENERGY     -1717.765008307038
FINAL SINGLE POINT ENERGY     -1717.765079079609
FINAL SINGLE POINT ENERGY     -1717.765135548232
FINAL SINGLE POINT ENERGY     -1717.765150232599
FINAL SINGLE POINT ENERGY     -1717.765182601468
FINAL SINGLE POINT ENERGY     -1717.765206201647
FINAL SINGLE POINT ENERGY     -1717.765192870625
                    ***********************HURRAY********************

CARTESIAN COORDINATES (ANGSTROEM)
---------------------------------
  Fe    -0.642291    0.518185    0.115101
  O      0.380137    2.184584   -0.880771
  H      0.781189    2.937976   -0.459662
  O     -1.270646   -0.203582   -1.859339
  H     -2.018977    0.098040   -2.364222
  O     -0.014036    1.239960    2.089569
  H      0.734250    0.938375    2.594540
  O     -1.664797   -1.148215    1.110957
  H     -2.065824   -1.901606    0.689825
  O     -2.511503    1.661471    0.230723
  H     -2.629445    2.580582    0.013706
  O      1.226883   -0.625097   -0.000528
  H      1.344806   -1.544211    0.216489
  H     -3.363640    1.333917    0.499893
  H     -0.842763   -0.874499   -2.381411
  H      2.079032   -0.297553   -0.269673
  H      0.516120    2.291573   -1.816690
  H     -0.441989    1.910886    2.611573
  H     -1.800797   -1.255228    2.046871

 Multiplicity           Mult            ....    5
 Number of Electrons    NEL             ....   84
 Basis Dimension        Dim             ....  175

ORBITAL ENERGIES
----------------
                 SPIN UP ORBITALS
  NO   OCC          E(Eh)            E(eV)
   0   1.0000    -261.619715     -7119.0344
   1   1.0000     -32.245487      -877.4443
   2   1.0000     -27.745463      -754.9924
   3   1.0000     -27.745408      -754.9909
   4   1.0000     -27.711412      -754.0659
   5   1.0000     -20.889558      -568.4338
   6   1.0000     -20.889547      -568.4335
   7   1.0000     -20.889536      -568.4332
   8   1.0000     -20.889531      -568.4330
   9   1.0000     -20.889511      -568.4325
  10   1.0000     -20.889503      -568.4323
  11   1.0000      -4.607639      -125.3802
  12   1.0000      -3.251309       -88.4726
  13   1.0000      -3.251188       -88.4693
  14   1.0000      -3.177812       -86.4727
  15   1.0000      -1.670575       -45.4587
  16   1.0000      -1.664596       -45.2960
  17   1.0000      -1.664586       -45.2957
  18   1.0000      -1.663621       -45.2694
  19   1.0000      -1.662699       -45.2443
  20   1.0000      -1.662690       -45.2441
  21   1.0000      -1.054658       -28.6987
  22   1.0000      -1.053724       -28.6733
  23   1.0000      -1.053714       -28.6730
  24   1.0000      -1.051486       -28.6124
  25   1.0000      -1.050777       -28.5931
  26   1.0000      -1.050767       -28.5928
  27   1.0000      -1.034132       -28.1402
  28   1.0000      -1.034100       -28.1393
  29   1.0000      -0.989088       -26.9144
  30   1.0000      -0.973268       -26.4840
  31   1.0000      -0.973262       -26.4838
  32   1.0000      -0.946265       -25.7492
  33   1.0000      -0.946250       -25.7488
  34   1.0000      -0.941203       -25.6114
  35   1.0000      -0.901027       -24.5182
  36   1.0000      -0.852930       -23.2094
  37   1.0000      -0.852909       -23.2088
  38   1.0000      -0.845021       -22.9942
  39   1.0000      -0.845012       -22.9940
  40   1.0000      -0.844864       -22.9899
  41   1.0000      -0.841326       -22.8937
  42   1.0000      -0.841321       -22.8935
  43   1.0000      -0.832696       -22.6588
  44   0.0000      -0.180855        -4.9213
  45   0.0000      -0.103548        -2.8177
  46   0.0000      -0.102071        -2.7775
  47   0.0000      -0.102067        -2.7774
  48   0.0000      -0.061501        -1.6735

                 SPIN DOWN ORBITALS
  NO   OCC          E(Eh)            E(eV)
   0   1.0000    -261.617712     -7118.9799
   1   1.0000     -32.121121      -874.0602
   2   1.0000     -27.611899      -751.3580
   3   1.0000     -27.611897      -751.3579
   4   1.0000     -27.611292      -751.3414
   5   1.0000     -20.888409      -568.4025
   6   1.0000     -20.888397      -568.4022
   7   1.0000     -20.888387      -568.4019
   8   1.0000     -20.888381      -568.4018
   9   1.0000     -20.888361      -568.4012
  10   1.0000     -20.888353      -568.4010
  11   1.0000      -4.255016      -115.7849
  12   1.0000      -2.834164       -77.1215
  13   1.0000      -2.783814       -75.7514
  14   1.0000      -2.783731       -75.7492
  15   1.0000      -1.668279       -45.3962
  16   1.0000      -1.662267       -45.2326
  17   1.0000      -1.662258       -45.2323
  18   1.0000      -1.661362       -45.2079
  19   1.0000      -1.660071       -45.1728
  20   1.0000      -1.660062       -45.1726
  21   1.0000      -1.052626       -28.6434
  22   1.0000      -1.050388       -28.5825
  23   1.0000      -1.049652       -28.5625
  24   1.0000      -1.049642       -28.5622
  25   1.0000      -1.048937       -28.5430
  26   1.0000      -1.048926       -28.5427
  27   1.0000      -0.981402       -26.7053
  28   1.0000      -0.939773       -25.5725
  29   1.0000      -0.939759       -25.5721
  30   1.0000      -0.935369       -25.4527
  31   1.0000      -0.930449       -25.3188
  32   1.0000      -0.930436       -25.3184
  33   1.0000      -0.846765       -23.0417
  34   1.0000      -0.846758       -23.0414
  35   1.0000      -0.844490       -22.9798
  36   1.0000      -0.842185       -22.9170
  37   1.0000      -0.842177       -22.9168
  38   1.0000      -0.842069       -22.9139
  39   1.0000      -0.740978       -20.1630
  40   0.0000      -0.179581        -4.8866
  41   0.0000      -0.102569        -2.7910
  42   0.0000      -0.100671        -2.7394
  43   0.0000      -0.100668        -2.7393
  44   0.0000      -0.068990        -1.8773

MULLIKEN ATOMIC CHARGES AND SPIN POPULATIONS
--------------------------------------------
   0 Fe:    1.388974    3.974565
   1 O :   -0.393263    0.002351
   2 H :    0.247692    0.000911
   3 O :   -0.393253    0.002354
   4 H :    0.247407    0.000976
   5 O :   -0.393253    0.002354
   6 H :    0.247410    0.000976
   7 O :   -0.393262    0.002351
   8 H :    0.247689    0.000911
   9 O :   -0.393253    0.002350
  10 H :    0.247679    0.000911
  11 O :   -0.393254    0.002350
  12 H :    0.247682    0.000911
  13 H :    0.247405    0.000977
  14 H :    0.247682    0.000910
  15 H :    0.247408    0.000978
  16 H :    0.247417    0.000977
  17 H :    0.247681    0.000909
  18 H :    0.247415    0.000977
Sum of atomic charges         :    2.0000000

LOEWDIN ATOMIC CHARGES AND SPIN POPULATIONS
-------------------------------------------
   0 Fe:    0.904176    3.931064
   1 O :   -0.058895    0.009959
   2 H :    0.120994    0.000734
   3 O :   -0.058899    0.009959
   4 H :    0.120548    0.000797
   5 O :   -0.058899    0.009959
   6 H :    0.120550    0.000797
   7 O :   -0.058900    0.009958
   8 H :    0.120992    0.000734
   9 O :   -0.058912    0.009955
  10 H :    0.120986    0.000734
  11 O :   -0.058905    0.009956
  12 H :    0.120988    0.000734
  13 H :    0.120546    0.000798
  14 H :    0.120988    0.000733
  15 H :    0.120549    0.000798
  16 H :    0.120554    0.000798
  17 H :    0.120986    0.000733
  18 H :    0.120553    0.000798

  Mayer bond orders larger than 0.100000
B(  0-Fe,  1-O ) :   0.1839 B(  0-Fe,  3-O ) :   0.1839 B(  0-Fe,  5-O ) :   0.1839
B(  0-Fe,  7-O ) :   0.1839 B(  0-Fe,  9-O ) :   0.1839 B(  0-Fe, 11-O ) :   0.1839
B(  1-O ,  2-H ) :   0.9498 B(  1-O , 16-H ) :   0.9492 B(  3-O ,  4-H ) :   0.9492
B(  3-O , 14-H ) :   0.9498 B(  5-O ,  6-H ) :   0.9492 B(  5-O , 17-H ) :   0.9498
B(  7-O ,  8-H ) :   0.9498 B(  7-O , 18-H ) :   0.9492 B(  9-O , 10-H ) :   0.9498
B(  9-O , 13-H ) :   0.9492 B( 11-O , 12-H ) :   0.9498 B( 11-O , 15-H ) :   0.9492

FINAL SINGLE POINT ENERGY     -1717.765199405727

DIPOLE MOMENT
-------------
                                X             Y             Z
Electronic contribution:      0.00032      -0.00002      -0.00001
Nuclear contribution   :     -0.00033       0.00002       0.00002
                        -----------------------------------------
Total Dipole Moment    :     -0.00001       0.00000       0.00000
                        -----------------------------------------
Magnitude (a.u.)       :      0.00001
Magnitude (Debye)      :      0.00003

VIBRATIONAL FREQUENCIES
-----------------------

Scaling factor for frequencies =  1.000000000  (already applied!)

   0:         0.00 cm**-1
   1:         0.00 cm**-1
   2:         0.00 cm**-1
   3:         0.00 cm**-1
   4:         0.00 cm**-1
   5:         0.00 cm**-1
   6:        82.60 cm**-1
   7:        82.63 cm**-1
   8:        83.23 cm**-1
   9:       101.14 cm**-1
  10:       101.26 cm**-1
  11:       104.30 cm**-1
  12:       121.87 cm**-1
  13:       123.10 cm**-1
  14:       123.14 cm**-1
  15:       197.47 cm**-1
  16:       197.68 cm**-1
  17:       206.29 cm**-1
  18:       207.56 cm**-1
  19:       234.08 cm**-1
  20:       253.18 cm**-1
  21:       253.32 cm**-1
  22:       324.49 cm**-1
  23:       325.58 cm**-1
  24:       335.42 cm**-1
  25:       335.45 cm**-1
  26:       364.43 cm**-1
  27:       404.02 cm**-1
  28:       429.59 cm**-1
  29:       429.64 cm**-1
  30:       455.38 cm**-1
  31:       460.32 cm**-1
  32:       460.42 cm**-1
  33:       545.39 cm**-1
  34:       545.67 cm**-1
  35:       567.02 cm**-1
  36:       567.05 cm**-1
  37:       570.28 cm**-1
  38:       581.67 cm**-1
  39:      1764.59 cm**-1
  40:      1764.63 cm**-1
  41:      1765.58 cm**-1
  42:      1765.59 cm**-1
  43:      1766.65 cm**-1
  44:      1772.16 cm**-1
  45:      4067.24 cm**-1
  46:      4067.32 cm**-1
  47:      4071.61 cm**-1
  48:      4071.98 cm**-1
  49:      4071.99 cm**-1
  50:      4082.63 cm**-1
  51:      4150.32 cm**-1
  52:      4150.33 cm**-1
  53:      4151.08 cm**-1
  54:      4151.08 cm**-1
  55:      4151.34 cm**-1
  56:      4152.11 cm**-1

IR SPECTRUM
-----------

 Mode   freq       eps      Int      T**2         TX        TY        TZ
       cm**-1   L/(mol*cm) km/mol    a.u.
----------------------------------------------------------------------------
  6:     82.60   0.000423    2.14  0.001597  ( 0.038806  0.004885 -0.008191)
  7:     82.63   0.000424    2.14  0.001601  ( 0.009168 -0.010618  0.037474)
  8:     83.23   0.000574    2.90  0.002153  (-0.002784  0.044353  0.013340)
  9:    101.14   0.000000    0.00  0.000000  ( 0.000004  0.000007  0.000002)
 10:    101.26   0.000000    0.00  0.000000  (-0.000004 -0.000006 -0.000007)
 11:    104.30   0.000000    0.00  0.000000  (-0.000002 -0.000001 -0.000010)
 12:    121.87   0.000113    0.57  0.000289  ( 0.001206 -0.016177 -0.005133)
 13:    123.10   0.000160    0.81  0.000405  (-0.019194 -0.003018  0.005246)
 14:    123.14   0.000160    0.81  0.000406  (-0.005942  0.005437 -0.018464)
 15:    197.47   0.000163    0.82  0.000257  (-0.014551  0.001241 -0.006644)
 16:    197.68   0.000161    0.81  0.000253  ( 0.006715  0.004595 -0.013683)
 17:    206.29   0.000000    0.00  0.000000  (-0.000008 -0.000000 -0.000006)
 18:    207.56   0.000000    0.00  0.000000  ( 0.000003  0.000003  0.000003)
 19:    234.08   0.000000    0.00  0.000000  (-0.000007 -0.000004  0.000005)
 20:    253.18   0.000000    0.00  0.000000  (-0.000002 -0.000001  0.000003)
 21:    253.32   0.000000    0.00  0.000000  (-0.000001 -0.000004 -0.000000)
 22:    324.49   0.000016    0.08  0.000015  (-0.000339  0.003666  0.001165)
 23:    325.58   0.000000    0.00  0.000000  ( 0.000014  0.000005 -0.000010)
 24:    335.42   0.000785    3.96  0.000730  (-0.021330  0.003746 -0.016154)
 25:    335.45   0.000783    3.96  0.000728  ( 0.016423  0.007245 -0.020155)
 26:    364.43   0.003214   16.24  0.002752  (-0.003034  0.050002  0.015573)
 27:    404.02   0.000000    0.00  0.000000  (-0.000010 -0.000006 -0.000007)
 28:    429.59   0.000000    0.00  0.000000  ( 0.000005  0.000007 -0.000002)
 29:    429.64   0.000000    0.00  0.000000  (-0.000001 -0.000024 -0.000009)
 30:    455.38   0.055564  280.80  0.038077  ( 0.012939 -0.185418 -0.059411)
 31:    460.32   0.084842  428.76  0.057517  ( 0.204876 -0.025077  0.122123)
 32:    460.42   0.084828  428.69  0.057495  ( 0.123678  0.069460 -0.193324)
 33:    545.39   0.000000    0.00  0.000000  (-0.000019 -0.000026  0.000000)
 34:    545.67   0.000000    0.00  0.000000  (-0.000006  0.000003 -0.000016)
 35:    567.02   0.113131  571.72  0.062263  ( 0.000743 -0.073882  0.238336)
 36:    567.05   0.113155  571.84  0.062272  (-0.249113 -0.014219 -0.003569)
 37:    570.28   0.000000    0.00  0.000000  (-0.000083 -0.000033  0.000115)
 38:    581.67   0.103536  523.23  0.055547  (-0.013720  0.224725  0.069694)
 39:   1764.59   0.000000    0.00  0.000000  ( 0.000096 -0.000036 -0.000003)
 40:   1764.63   0.000000    0.00  0.000000  (-0.000013  0.000007 -0.000012)
 41:   1765.58   0.055354  279.74  0.009784  ( 0.093165  0.015004 -0.029645)
 42:   1765.59   0.055356  279.75  0.009784  ( 0.032755 -0.026703  0.089432)
 43:   1766.65   0.051791  261.73  0.009148  (-0.005355  0.090922  0.029206)
 44:   1772.16   0.000000    0.00  0.000000  ( 0.000010 -0.000006 -0.000000)
 45:   4067.24   0.000000    0.00  0.000000  ( 0.000008  0.000019 -0.000011)
 46:   4067.32   0.000000    0.00  0.000000  (-0.000013  0.000018 -0.000001)
 47:   4071.61   0.065137  329.17  0.004992  ( 0.003134 -0.067178 -0.021671)
 48:   4071.98   0.070565  356.61  0.005408  ( 0.051245 -0.013896  0.050879)
 49:   4071.99   0.070594  356.75  0.005410  ( 0.052665  0.017985 -0.048093)
 50:   4082.63   0.000000    0.00  0.000000  (-0.000008 -0.000003  0.000003)
 51:   4150.32   0.000000    0.00  0.000000  ( 0.000061  0.000027  0.000128)
 52:   4150.33   0.000000    0.00  0.000000  ( 0.000112  0.000098 -0.000040)
 53:   4151.08   0.091223  461.00  0.006858  (-0.050163  0.016331 -0.063834)
 54:   4151.08   0.091188  460.83  0.006855  ( 0.065705  0.018078 -0.047023)
 55:   4151.34   0.000004    0.02  0.000000  ( 0.000151  0.000162 -0.000517)
 56:   4152.11   0.137959  697.19  0.010369  ( 0.005827 -0.097245 -0.029632)

--------------------------
THERMOCHEMISTRY AT 298.15K
--------------------------

Temperature         ... 298.15 K
Pressure            ... 1.00 atm
Total Mass          ... 163.94 AMU

Throughout the following assumptions are being made:
  (1) The electronic state is orbitally nondegenerate
      but the spin degeneracy is treated
  (2) There are no thermally accessible electronically excited states
  (3) Hindered rotations indicated by low frequency modes are not
      treated as such but are treated as vibrations and this may
      cause some error
  (4) All equations used are the standard statistical mechanics
      equations for an ideal gas
  (5) All vibrations are strictly harmonic

freq.      82.60  E(vib)   ...       0.48
freq.      82.63  E(vib)   ...       0.48
freq.      83.23  E(vib)   ...       0.48
freq.     101.14  E(vib)   ...       0.46
freq.     101.26  E(vib)   ...       0.46
freq.     104.30  E(vib)   ...       0.46
freq.     121.87  E(vib)   ...       0.44
freq.     123.10  E(vib)   ...       0.43
freq.     123.14  E(vib)   ...       0.43
freq.     197.47  E(vib)   ...       0.35
freq.     197.68  E(vib)   ...       0.35
freq.     206.29  E(vib)   ...       0.35
freq.     207.56  E(vib)   ...       0.34
freq.     234.08  E(vib)   ...       0.32
freq.     253.18  E(vib)   ...       0.30
freq.     253.32  E(vib)   ...       0.30
freq.     324.49  E(vib)   ...       0.25
freq.     325.58  E(vib)   ...       0.24
freq.     335.42  E(vib)   ...       0.24
freq.     335.45  E(vib)   ...       0.24
freq.     364.43  E(vib)   ...       0.22
freq.     404.02  E(vib)   ...       0.19
freq.     429.59  E(vib)   ...       0.18
freq.     429.64  E(vib)   ...       0.18
freq.     455.38  E(vib)   ...       0.16
freq.     460.32  E(vib)   ...       0.16
freq.     460.42  E(vib)   ...       0.16
freq.     545.39  E(vib)   ...       0.12
freq.     545.67  E(vib)   ...       0.12
freq.     567.02  E(vib)   ...       0.11
freq.     567.05  E(vib)   ...       0.11
freq.     570.28  E(vib)   ...       0.11
freq.     581.67  E(vib)   ...       0.11
freq.    1764.59  E(vib)   ...       0.00
freq.    1764.63  E(vib)   ...       0.00
freq.    1765.58  E(vib)   ...       0.00
freq.    1765.59  E(vib)   ...       0.00
freq.    1766.65  E(vib)   ...       0.00
freq.    1772.16  E(vib)   ...       0.00
freq.    4067.24  E(vib)   ...       0.00
freq.    4067.32  E(vib)   ...       0.00
freq.    4071.61  E(vib)   ...       0.00
freq.    4071.98  E(vib)   ...       0.00
freq.    4071.99  E(vib)   ...       0.00
freq.    4082.63  E(vib)   ...       0.00
freq.    4150.32  E(vib)   ...       0.00
freq.    4150.33  E(vib)   ...       0.00
freq.    4151.08  E(vib)   ...       0.00
freq.    4151.08  E(vib)   ...       0.00
freq.    4151.34  E(vib)   ...       0.00
freq.    4152.11  E(vib)   ...       0.00

------------
INNER ENERGY
------------

The inner energy is: U= E(el) + E(ZPE) + E(vib) + E(rot) + E(trans)
    E(el)   - is the total energy from the electronic structure calculation
              = E(kin-el) + E(nuc-el) + E(el-el) + E(nuc-nuc)
    E(ZPE)  - the the zero temperature vibrational energy from the frequency calculation
    E(vib)  - the the finite temperature correction to E(ZPE) due to population
              of excited vibrational states
    E(rot)  - is the rotational thermal energy
    E(trans)- is the translational thermal energy

Summary of contributions to the inner energy U:
Electronic energy                ...  -1717.76519941 Eh
Zero point energy                ...      0.15972897 Eh     100.23 kcal/mol
Thermal vibrational correction   ...      0.01489315 Eh       9.35 kcal/mol
Thermal rotational correction    ...      0.00141627 Eh       0.89 kcal/mol
Thermal translational correction ...      0.00141627 Eh       0.89 kcal/mol
-----------------------------------------------------------------------
Total thermal energy                  -1717.58774474 Eh

Summary of corrections to the electronic energy:
(perhaps to be used in another calculation)
Total thermal correction                  0.01772570 Eh      11.12 kcal/mol
Non-thermal (ZPE) correction              0.15972897 Eh     100.23 kcal/mol
-----------------------------------------------------------------------
Total correction                          0.17745466 Eh     111.35 kcal/mol

--------
ENTHALPY
--------

The enthalpy is H = U + kB*T
                kB is Boltzmann's constant
Total free energy                 ...  -1717.58774474 Eh
Thermal Enthalpy correction       ...      0.00094421 Eh       0.59 kcal/mol
-----------------------------------------------------------------------
Total Enthalpy                    ...  -1717.58680053 Eh

Note: Only C1 symmetry has been detected, increase convergence thresholds
      if your molecule has a higher symmetry. Symmetry factor of 1.0 is
      used for the rotational entropy correction.

Note: Rotational entropy computed according to Herzberg
Infrared and Raman Spectra, Chapter V,1, Van Nostrand Reinhold, 1945
Point Group:  C1, Symmetry Number:   1
Rotational constants in cm-1:     0.045561     0.045560     0.044013

Vibrational entropy computed according to the QRRHO of S. Grimme
Chem.Eur.J. 2012 18 9955

-------
ENTROPY
-------

The entropy contributions are T*S = T*(S(el)+S(vib)+S(rot)+S(trans))
     S(el)   - electronic entropy
     S(vib)  - vibrational entropy
     S(rot)  - rotational entropy
     S(trans)- translational entropy
The entropies will be listed as multiplied by the temperature to get
units of energy

Electronic entropy                ...      0.00151960 Eh      0.95 kcal/mol
Vibrational entropy               ...      0.02665716 Eh     16.73 kcal/mol
Rotational entropy                ...      0.01390157 Eh      8.72 kcal/mol
Translational entropy             ...      0.01957135 Eh     12.28 kcal/mol
-----------------------------------------------------------------------
Final entropy term                ...      0.06164968 Eh     38.69 kcal/mol

In case the symmetry of your molecule has not been determined correctly
or in case you have a reason to use a different symmetry number we print
out the resulting rotational entropy values for sn=1,12 :
 --------------------------------------------------------
|  sn= 1 | S(rot)=       0.01390157 Eh      8.72 kcal/mol|
|  sn= 2 | S(rot)=       0.01324712 Eh      8.31 kcal/mol|
|  sn= 3 | S(rot)=       0.01286429 Eh      8.07 kcal/mol|
|  sn= 4 | S(rot)=       0.01259266 Eh      7.90 kcal/mol|
|  sn= 5 | S(rot)=       0.01238197 Eh      7.77 kcal/mol|
|  sn= 6 | S(rot)=       0.01220983 Eh      7.66 kcal/mol|
|  sn= 7 | S(rot)=       0.01206428 Eh      7.57 kcal/mol|
|  sn= 8 | S(rot)=       0.01193821 Eh      7.49 kcal/mol|
|  sn= 9 | S(rot)=       0.01182700 Eh      7.42 kcal/mol|
|  sn=10 | S(rot)=       0.01172752 Eh      7.36 kcal/mol|
|  sn=11 | S(rot)=       0.01163753 Eh      7.30 kcal/mol|

                             ****ORCA TERMINATED NORMALLY****
TOTAL RUN TIME: 0 days 0 hours 4 minutes 38 seconds 159 msec
