                         Program Version 5.0.0 -  RELEASE  -
|  1> ! UHF def2-TZVP VeryTightSCF NoTRAH SlowConv
|  2>
|  3> %pal
|  4>     nprocs 16
|  5> end
|  6>
|  7> *xyz 2 5
|  8> Fe -0.64257176050830  0.51803920561668  0.11515259480577
|  9>  O  0.11174687498777  2.15027362958097 -0.78003307659188
| 10>  H  0.70766775417542  2.71590643817051 -0.25346860209865
| 11>  O -1.31193844940493 -0.30254437211926 -1.59153974321848
| 12>  H -1.93648366806763  0.13093135988795 -2.20090760771949
| 13>  O  0.02720918798052  1.33940572113505  1.82122676893196
| 14>  H  0.65258765622944  0.90686870076571  2.43040311553976
| 15>  O -1.39648053530566 -1.11444807905756  1.01023916292248
| 16>  H -1.99331392681300 -1.67940484230818  0.48397490889195
| 17>  O -2.28682023617329  1.63340828371306  0.41005372492049
| 18>  H -2.35377021104600  2.47291065207153 -0.08301808819513
| 19>  O  1.00194372931180 -0.59712335622834 -0.17950165163229
| 20>  H  1.06807766676477 -1.43758842942053  0.31202545851205
| 21>  H -3.18922098471738  1.27280247171927  0.48036417156888
| 22>  H -0.66521991563992 -0.78352006296416 -2.14179468111308
| 23>  H  1.90454646424149 -0.23678289755293 -0.24845043594753
| 24>  H  0.43776650602076  2.17113603799071 -1.69794346797289
| 25>  H -0.61875604533523  1.82123954705219  2.37159866149671
| 26>  H -1.72126010670064 -1.13595000805262  1.92856878689935
| 27>  *
| 28>
| 29>                          ****END OF INPUT****

CARTESIAN COORDINATES (ANGSTROEM)
---------------------------------
  Fe    -0.642572    0.518039    0.115153
  O      0.111747    2.150274   -0.780033
  H      0.707668    2.715906   -0.253469
  O     -1.311938   -0.302544   -1.591540
  H     -1.936484    0.130931   -2.200908
  O      0.027209    1.339406    1.821227
  H      0.652588    0.906869    2.430403
  O     -1.396481   -1.114448    1.010239
  H     -1.993314   -1.679405    0.483975
  O     -2.286820    1.633408    0.410054
  H     -2.353770    2.472911   -0.083018
  O      1.001944   -0.597123   -0.179502
  H      1.068078   -1.437588    0.312025
  H     -3.189221    1.272802    0.480364
  H     -0.665220   -0.783520   -2.141795
  H      1.904546   -0.236783   -0.248450
  H      0.437767    2.171136   -1.697943
  H     -0.618756    1.821240    2.371599
  H     -1.721260   -1.135950    1.928569

 Total Charge           Charge          ....    2
 Multiplicity           Mult            ....    5
 Number of Electrons    NEL             ....   84
 Basis Dimension        Dim             ....  303

ORBITAL ENERGIES
----------------
                 SPIN UP ORBITALS
  NO   OCC          E(Eh)            E(eV)
   0   1.0000    -261.586577     -7118.1326
   1   1.0000     -32.208428      -876.4359
   2   1.0000     -27.699311      -753.7366
   3   1.0000     -27.698923      -753.7260
   4   1.0000     -27.665461      -752.8155
   5   1.0000     -20.909353      -568.9724
   6   1.0000     -20.909335      -568.9719
   7   1.0000     -20.909321      -568.9716
   8   1.0000     -20.909314      -568.9714
   9   1.0000     -20.909272      -568.9702
  10   1.0000     -20.909262      -568.9699
  11   1.0000      -4.576047      -124.5206
  12   1.0000      -3.219119       -87.5967
  13   1.0000      -3.218261       -87.5733
  14   1.0000      -3.146891       -85.6313
  15   1.0000      -1.712835       -46.6086
  16   1.0000      -1.701589       -46.3026
  17   1.0000      -1.697359       -46.1875
  18   1.0000      -1.697308       -46.1861
  19   1.0000      -1.695889       -46.1475
  20   1.0000      -1.695839       -46.1461
  21   1.0000      -1.076174       -29.2842
  22   1.0000      -1.068871       -29.0855
  23   1.0000      -1.068821       -29.0841
  24   1.0000      -1.068626       -29.0788
  25   1.0000      -1.061409       -28.8824
  26   1.0000      -1.061342       -28.8806
  27   1.0000      -1.048492       -28.5309
  28   1.0000      -1.048331       -28.5265
  29   1.0000      -1.018955       -27.7272
  30   1.0000      -0.971172       -26.4269
  31   1.0000      -0.959945       -26.1214
  32   1.0000      -0.959897       -26.1201
  33   1.0000      -0.952809       -25.9272
  34   1.0000      -0.952768       -25.9261
  35   1.0000      -0.890342       -24.2274
  36   1.0000      -0.875051       -23.8114
  37   1.0000      -0.874992       -23.8097
  38   1.0000      -0.865368       -23.5478
  39   1.0000      -0.865294       -23.5459
  40   1.0000      -0.856773       -23.3140
  41   1.0000      -0.829777       -22.5794
  42   1.0000      -0.794963       -21.6320
  43   1.0000      -0.794784       -21.6272
  44   0.0000      -0.200151        -5.4464
  45   0.0000      -0.149197        -4.0599
  46   0.0000      -0.149181        -4.0594
  47   0.0000      -0.135818        -3.6958
  48   0.0000      -0.106902        -2.9089

                 SPIN DOWN ORBITALS
  NO   OCC          E(Eh)            E(eV)
   0   1.0000    -261.583848     -7118.0584
   1   1.0000     -32.082199      -873.0010
   2   1.0000     -27.563881      -750.0513
   3   1.0000     -27.563870      -750.0510
   4   1.0000     -27.562349      -750.0096
   5   1.0000     -20.907462      -568.9210
   6   1.0000     -20.907443      -568.9204
   7   1.0000     -20.907426      -568.9200
   8   1.0000     -20.907419      -568.9198
   9   1.0000     -20.907382      -568.9188
  10   1.0000     -20.907372      -568.9185
  11   1.0000      -4.219800      -114.8266
  12   1.0000      -2.798958       -76.1635
  13   1.0000      -2.749466       -74.8168
  14   1.0000      -2.748889       -74.8011
  15   1.0000      -1.708528       -46.4914
  16   1.0000      -1.697121       -46.1810
  17   1.0000      -1.692795       -46.0633
  18   1.0000      -1.692750       -46.0621
  19   1.0000      -1.690750       -46.0077
  20   1.0000      -1.690705       -46.0064
  21   1.0000      -1.072223       -29.1767
  22   1.0000      -1.066609       -29.0239
  23   1.0000      -1.060036       -28.8450
  24   1.0000      -1.059972       -28.8433
  25   1.0000      -1.059373       -28.8270
  26   1.0000      -1.059308       -28.8252
  27   1.0000      -1.009164       -27.4608
  28   1.0000      -0.963378       -26.2149
  29   1.0000      -0.951734       -25.8980
  30   1.0000      -0.951681       -25.8966
  31   1.0000      -0.950701       -25.8699
  32   1.0000      -0.950665       -25.8689
  33   1.0000      -0.869284       -23.6544
  34   1.0000      -0.869241       -23.6532
  35   1.0000      -0.868939       -23.6450
  36   1.0000      -0.868888       -23.6436
  37   1.0000      -0.867312       -23.6007
  38   1.0000      -0.850327       -23.1386
  39   1.0000      -0.697406       -18.9774
  40   0.0000      -0.199090        -5.4175
  41   0.0000      -0.148433        -4.0391
  42   0.0000      -0.148420        -4.0387
  43   0.0000      -0.135317        -3.6822
  44   0.0000      -0.111864        -3.0440

MULLIKEN ATOMIC CHARGES AND SPIN POPULATIONS
--------------------------------------------
   0 Fe:    1.187366    3.912644
   1 O :   -0.707756    0.012939
   2 H :    0.426013    0.001147
   3 O :   -0.707733    0.012992
   4 H :    0.417242    0.000454
   5 O :   -0.707874    0.012988
   6 H :    0.417246    0.000455
   7 O :   -0.707821    0.012932
   8 H :    0.426012    0.001150
   9 O :   -0.707727    0.012936
  10 H :    0.425949    0.001154
  11 O :   -0.707824    0.012937
  12 H :    0.425984    0.001149
  13 H :    0.417217    0.000460
  14 H :    0.425965    0.001126
  15 H :    0.417216    0.000462
  16 H :    0.417247    0.000472
  17 H :    0.426003    0.001129
  18 H :    0.417274    0.000473
Sum of atomic charges         :    2.0000000

LOEWDIN ATOMIC CHARGES AND SPIN POPULATIONS
-------------------------------------------
   0 Fe:    0.123187    3.851208
   1 O :   -0.119865    0.022482
   2 H :    0.219586    0.001389
   3 O :   -0.119840    0.022495
   4 H :    0.213096    0.000941
   5 O :   -0.119844    0.022493
   6 H :    0.213090    0.000941
   7 O :   -0.119857    0.022471
   8 H :    0.219602    0.001390
   9 O :   -0.119897    0.022432
  10 H :    0.219577    0.001391
  11 O :   -0.119924    0.022433
  12 H :    0.219573    0.001388
  13 H :    0.213087    0.000944
  14 H :    0.219572    0.001373
  15 H :    0.213075    0.000945
  16 H :    0.213096    0.000954
  17 H :    0.219573    0.001375
  18 H :    0.213114    0.000954

  Mayer bond orders larger than 0.100000
B(  0-Fe,  1-O ) :   0.2314 B(  0-Fe,  3-O ) :   0.2313 B(  0-Fe,  5-O ) :   0.2312
B(  0-Fe,  7-O ) :   0.2314 B(  0-Fe,  9-O ) :   0.2312 B(  0-Fe, 11-O ) :   0.2311
B(  1-O ,  2-H ) :   0.8237 B(  1-O , 16-H ) :   0.8316 B(  3-O ,  4-H ) :   0.8316
B(  3-O , 14-H ) :   0.8237 B(  5-O ,  6-H ) :   0.8316 B(  5-O , 17-H ) :   0.8237
B(  7-O ,  8-H ) :   0.8237 B(  7-O , 18-H ) :   0.8316 B(  9-O , 10-H ) :   0.8238
B(  9-O , 13-H ) :   0.8316 B( 11-O , 12-H ) :   0.8237 B( 11-O , 15-H ) :   0.8316

FINAL SINGLE POINT ENERGY     -1718.417173598626

DIPOLE MOMENT
-------------
                                X             Y             Z
Electronic contribution:     -0.00161      -0.00099       0.00068
Nuclear contribution   :      0.00229       0.00130      -0.00008
                        -----------------------------------------
Total Dipole Moment    :      0.00068       0.00031       0.00060
                        -----------------------------------------
Magnitude (a.u.)       :      0.00096
Magnitude (Debye)      :      0.00245

Rotational constants in cm-1:     0.057213     0.051955     0.051945
Rotational constants in MHz :  1715.201752  1557.579206  1557.273951

                             ****ORCA TERMINATED NORMALLY****
TOTAL RUN TIME: 0 days 0 hours 1 minutes 12 seconds 762 msec
