                         Program Version 5.0.0 -  RELEASE  -
|  1> ! UHF def2-TZVP TightSCF
|  2>
|  3> %pal
|  4>     nprocs 16
|  5> end
|  6>
|  7> %scf
|  8>     MaxIter 250
|  9> end
| 10>
| 11> *xyz 2 3
| 12> Fe -0.64257176050830  0.51803920561668  0.11515259480577
| 13>  O  0.11174687498777  2.15027362958097 -0.78003307659188
| 14>  H  0.70766775417542  2.71590643817051 -0.25346860209865
| 15>  O -1.31193844940493 -0.30254437211926 -1.59153974321848
| 16>  H -1.93648366806763  0.13093135988795 -2.20090760771949
| 17>  O  0.02720918798052  1.33940572113505  1.82122676893196
| 18>  H  0.65258765622944  0.90686870076571  2.43040311553976
| 19>  O -1.39648053530566 -1.11444807905756  1.01023916292248
| 20>  H -1.99331392681300 -1.67940484230818  0.48397490889195
| 21>  O -2.28682023617329  1.63340828371306  0.41005372492049
| 22>  H -2.35377021104600  2.47291065207153 -0.08301808819513
| 23>  O  1.00194372931180 -0.59712335622834 -0.17950165163229
| 24>  H  1.06807766676477 -1.43758842942053  0.31202545851205
| 25>  H -3.18922098471738  1.27280247171927  0.48036417156888
| 26>  H -0.66521991563992 -0.78352006296416 -2.14179468111308
| 27>  H  1.90454646424149 -0.23678289755293 -0.24845043594753
| 28>  H  0.43776650602076  2.17113603799071 -1.69794346797289
| 29>  H -0.61875604533523  1.82123954705219  2.37159866149671
| 30>  H -1.72126010670064 -1.13595000805262  1.92856878689935
| 31> *
| 32>
| 33>                          ****END OF INPUT****

CARTESIAN COORDINATES (ANGSTROEM)
---------------------------------
  Fe    -0.642572    0.518039    0.115153
  O      0.111747    2.150274   -0.780033
  H      0.707668    2.715906   -0.253469
  O     -1.311938   -0.302544   -1.591540
  H     -1.936484    0.130931   -2.200908
  O      0.027209    1.339406    1.821227
  H      0.652588    0.906869    2.430403
  O     -1.396481   -1.114448    1.010239
  H     -1.993314   -1.679405    0.483975
  O     -2.286820    1.633408    0.410054
  H     -2.353770    2.472911   -0.083018
  O      1.001944   -0.597123   -0.179502
  H      1.068078   -1.437588    0.312025
  H     -3.189221    1.272802    0.480364
  H     -0.665220   -0.783520   -2.141795
  H      1.904546   -0.236783   -0.248450
  H      0.437767    2.171136   -1.697943
  H     -0.618756    1.821240    2.371599
  H     -1.721260   -1.135950    1.928569

 Total Charge           Charge          ....    2
 Multiplicity           Mult            ....    3
 Number of Electrons    NEL             ....   84
 Basis Dimension        Dim             ....  303

ORBITAL ENERGIES
----------------
                 SPIN UP ORBITALS
  NO   OCC          E(Eh)            E(eV)
   0   1.0000    -261.601790     -7118.5466
   1   1.0000     -32.193114      -876.0192
   2   1.0000     -27.682078      -753.2676
   3   1.0000     -27.676522      -753.1164
   4   1.0000     -27.660355      -752.6765
   5   1.0000     -20.912646      -569.0620
   6   1.0000     -20.912638      -569.0618
   7   1.0000     -20.908146      -568.9396
   8   1.0000     -20.908140      -568.9394
   9   1.0000     -20.908122      -568.9389
  10   1.0000     -20.908102      -568.9384
  11   1.0000      -4.492830      -122.2561
  12   1.0000      -3.144502       -85.5663
  13   1.0000      -3.100410       -84.3664
  14   1.0000      -3.035502       -82.6002
  15   1.0000      -1.711270       -46.5660
  16   1.0000      -1.700233       -46.2657
  17   1.0000      -1.695992       -46.1503
  18   1.0000      -1.695092       -46.1258
  19   1.0000      -1.694065       -46.0978
  20   1.0000      -1.693626       -46.0859
  21   1.0000      -1.075758       -29.2729
  22   1.0000      -1.068681       -29.0803
  23   1.0000      -1.068202       -29.0672
  24   1.0000      -1.064813       -28.9750
  25   1.0000      -1.061481       -28.8844
  26   1.0000      -1.059769       -28.8378
  27   1.0000      -1.027844       -27.9691
  28   1.0000      -1.015320       -27.6283
  29   1.0000      -0.984937       -26.8015
  30   1.0000      -0.968954       -26.3666
  31   1.0000      -0.956876       -26.0379
  32   1.0000      -0.955581       -26.0027
  33   1.0000      -0.929301       -25.2876
  34   1.0000      -0.890131       -24.2217
  35   1.0000      -0.877432       -23.8761
  36   1.0000      -0.873354       -23.7652
  37   1.0000      -0.871922       -23.7262
  38   1.0000      -0.859084       -23.3769
  39   1.0000      -0.853869       -23.2349
  40   1.0000      -0.827222       -22.5099
  41   1.0000      -0.818638       -22.2763
  42   1.0000      -0.770012       -20.9531
  43   0.0000      -0.199383        -5.4255
  44   0.0000      -0.148952        -4.0532
  45   0.0000      -0.148380        -4.0376
  46   0.0000      -0.135738        -3.6936
  47   0.0000      -0.114193        -3.1073

                 SPIN DOWN ORBITALS
  NO   OCC          E(Eh)            E(eV)
   0   1.0000    -261.600433     -7118.5097
   1   1.0000     -32.130252      -874.3086
   2   1.0000     -27.631613      -751.8944
   3   1.0000     -27.611475      -751.3464
   4   1.0000     -27.589786      -750.7563
   5   1.0000     -20.913415      -569.0830
   6   1.0000     -20.913407      -569.0827
   7   1.0000     -20.906854      -568.9044
   8   1.0000     -20.906833      -568.9038
   9   1.0000     -20.906787      -568.9026
  10   1.0000     -20.906780      -568.9024
  11   1.0000      -4.315828      -117.4397
  12   1.0000      -2.943925       -80.1083
  13   1.0000      -2.876639       -78.2773
  14   1.0000      -2.818658       -76.6996
  15   1.0000      -1.710283       -46.5392
  16   1.0000      -1.700549       -46.2743
  17   1.0000      -1.694161       -46.1005
  18   1.0000      -1.693825       -46.0913
  19   1.0000      -1.692078       -46.0438
  20   1.0000      -1.689955       -45.9860
  21   1.0000      -1.074120       -29.2283
  22   1.0000      -1.068098       -29.0644
  23   1.0000      -1.061554       -28.8863
  24   1.0000      -1.060784       -28.8654
  25   1.0000      -1.060741       -28.8642
  26   1.0000      -1.058363       -28.7995
  27   1.0000      -1.011214       -27.5165
  28   1.0000      -0.974147       -26.5079
  29   1.0000      -0.966155       -26.2904
  30   1.0000      -0.953639       -25.9498
  31   1.0000      -0.952759       -25.9259
  32   1.0000      -0.949918       -25.8486
  33   1.0000      -0.895139       -24.3580
  34   1.0000      -0.873504       -23.7692
  35   1.0000      -0.872118       -23.7315
  36   1.0000      -0.869290       -23.6546
  37   1.0000      -0.869059       -23.6483
  38   1.0000      -0.852472       -23.1969
  39   1.0000      -0.771544       -20.9948
  40   1.0000      -0.762355       -20.7447
  41   0.0000      -0.198915        -5.4127
  42   0.0000      -0.148776        -4.0484
  43   0.0000      -0.147962        -4.0263
  44   0.0000      -0.135407        -3.6846
  45   0.0000      -0.112707        -3.0669

MULLIKEN ATOMIC CHARGES AND SPIN POPULATIONS
--------------------------------------------
   0 Fe:    1.154145    1.978957
   1 O :   -0.706090    0.008608
   2 H :    0.425588   -0.000029
   3 O :   -0.704001    0.008600
   4 H :    0.417486    0.001966
   5 O :   -0.704141    0.008611
   6 H :    0.417491    0.001966
   7 O :   -0.706157    0.008593
   8 H :    0.425590   -0.000024
   9 O :   -0.697993   -0.014021
  10 H :    0.427000    0.003316
  11 O :   -0.698094   -0.014011
  12 H :    0.427036    0.003307
  13 H :    0.419355   -0.001370
  14 H :    0.424201    0.001128
  15 H :    0.419358   -0.001368
  16 H :    0.417480    0.002319
  17 H :    0.424239    0.001131
  18 H :    0.417508    0.002322
Sum of atomic charges         :    2.0000000

LOEWDIN ATOMIC CHARGES AND SPIN POPULATIONS
-------------------------------------------
   0 Fe:    0.090101    1.942861
   1 O :   -0.118274    0.015684
   2 H :    0.219356    0.000480
   3 O :   -0.117040    0.016010
   4 H :    0.213724    0.001637
   5 O :   -0.117042    0.016019
   6 H :    0.213718    0.001637
   7 O :   -0.118267    0.015668
   8 H :    0.219374    0.000483
   9 O :   -0.110770   -0.008995
  10 H :    0.220531    0.001742
  11 O :   -0.110798   -0.008985
  12 H :    0.220526    0.001736
  13 H :    0.215445   -0.001131
  14 H :    0.218403    0.001149
  15 H :    0.215435   -0.001129
  16 H :    0.213577    0.001992
  17 H :    0.218405    0.001150
  18 H :    0.213596    0.001993

  Mayer bond orders larger than 0.100000
B(  0-Fe,  1-O ) :   0.2303 B(  0-Fe,  3-O ) :   0.2311 B(  0-Fe,  5-O ) :   0.2309
B(  0-Fe,  7-O ) :   0.2303 B(  0-Fe,  9-O ) :   0.2549 B(  0-Fe, 11-O ) :   0.2548
B(  1-O ,  2-H ) :   0.8241 B(  1-O , 16-H ) :   0.8315 B(  3-O ,  4-H ) :   0.8315
B(  3-O , 14-H ) :   0.8253 B(  5-O ,  6-H ) :   0.8315 B(  5-O , 17-H ) :   0.8253
B(  7-O ,  8-H ) :   0.8241 B(  7-O , 18-H ) :   0.8315 B(  9-O , 10-H ) :   0.8227
B(  9-O , 13-H ) :   0.8297 B( 11-O , 12-H ) :   0.8226 B( 11-O , 15-H ) :   0.8297

FINAL SINGLE POINT ENERGY     -1718.347214743966

DIPOLE MOMENT
-------------
                                X             Y             Z
Electronic contribution:     -0.00157      -0.00102       0.00070
Nuclear contribution   :      0.00229       0.00130      -0.00008
                        -----------------------------------------
Total Dipole Moment    :      0.00072       0.00029       0.00062
                        -----------------------------------------
Magnitude (a.u.)       :      0.00100
Magnitude (Debye)      :      0.00253

Rotational constants in cm-1:     0.057213     0.051955     0.051945
Rotational constants in MHz :  1715.201752  1557.579206  1557.273951

                             ****ORCA TERMINATED NORMALLY****
TOTAL RUN TIME: 0 days 0 hours 9 minutes 33 seconds 288 msec
