                         Program Version 5.0.0 -  RELEASE  -
|  1> ! RHF aug-cc-pVQZ pal8 VeryTightSCF UseSym
|  2>
|  3> *xyz 0 1
|  4>  B	0.0	0.0	0.0
|  5>  H	0.8	0.0	0.0
|  6> **                         ****END OF INPUT****

CARTESIAN COORDINATES (ANGSTROEM)
---------------------------------
  B      0.000000    0.000000   -0.068235
  H      0.000000    0.000000    0.731765

 Total Charge           Charge          ....    0
 Multiplicity           Mult            ....    1
 Number of Electrons    NEL             ....    6
 Basis Dimension        Dim             ....  126

ORBITAL ENERGIES
----------------

  NO   OCC          E(Eh)            E(eV)    Irrep
   0   2.0000      -7.643971      -208.0030    1-A1
   1   2.0000      -0.779757       -21.2183    2-A1
   2   2.0000      -0.339544        -9.2395    3-A1
   3   0.0000       0.024799         0.6748    1-B2
   4   0.0000       0.024799         0.6748    1-B1
   5   0.0000       0.026931         0.7328    4-A1
   6   0.0000       0.043996         1.1972    5-A1
   7   0.0000       0.078826         2.1450    2-B2

MULLIKEN ATOMIC CHARGES
-----------------------
   0 B :   -0.112482
   1 H :    0.112482
Sum of atomic charges:   -0.0000000

LOEWDIN ATOMIC CHARGES
----------------------
   0 B :    0.752224
   1 H :   -0.752224

  Mayer bond orders larger than 0.100000
B(  0-B ,  1-H ) :   0.6965

FINAL SINGLE POINT ENERGY       -24.978335009011

DIPOLE MOMENT
-------------
                                X             Y             Z
Electronic contribution:      0.00000       0.00000       0.29994
Nuclear contribution   :      0.00000       0.00000       0.73811
                        -----------------------------------------
Total Dipole Moment    :      0.00000       0.00000       1.03805
                        -----------------------------------------
Magnitude (a.u.)       :      1.03805
Magnitude (Debye)      :      2.63852

Rotational constants in cm-1:     0.000000    28.567661    28.567661
Rotational constants in MHz :     0.000000 856436.936940 856436.936940

                             ****ORCA TERMINATED NORMALLY****
TOTAL RUN TIME: 0 days 0 hours 0 minutes 3 seconds 364 msec
