                         Program Version 5.0.0 -  RELEASE  -
|  1> ! RHF aug-cc-pVQZ pal8 VeryTightSCF UseSym
|  2>
|  3> *xyz 0 1
|  4>  B	0.0	0.0	0.0
|  5>  H	1.1	0.0	0.0
|  6> **                         ****END OF INPUT****

CARTESIAN COORDINATES (ANGSTROEM)
---------------------------------
  B      0.000000    0.000000   -0.093823
  H      0.000000    0.000000    1.006177

 Total Charge           Charge          ....    0
 Multiplicity           Mult            ....    1
 Number of Electrons    NEL             ....    6
 Basis Dimension        Dim             ....  126

ORBITAL ENERGIES
----------------

  NO   OCC          E(Eh)            E(eV)    Irrep
   0   2.0000      -7.669036      -208.6851    1-A1
   1   2.0000      -0.685795       -18.6614    2-A1
   2   2.0000      -0.344656        -9.3786    3-A1
   3   0.0000       0.024512         0.6670    1-B2
   4   0.0000       0.024512         0.6670    1-B1
   5   0.0000       0.029616         0.8059    4-A1
   6   0.0000       0.045217         1.2304    5-A1
   7   0.0000       0.079501         2.1633    2-B2

MULLIKEN ATOMIC CHARGES
-----------------------
   0 B :    0.074533
   1 H :   -0.074533
Sum of atomic charges:   -0.0000000

LOEWDIN ATOMIC CHARGES
----------------------
   0 B :    0.555290
   1 H :   -0.555290

  Mayer bond orders larger than 0.100000
B(  0-B ,  1-H ) :   0.8536

FINAL SINGLE POINT ENERGY       -25.124567302411

DIPOLE MOMENT
-------------
                                X             Y             Z
Electronic contribution:      0.00000       0.00000      -0.18541
Nuclear contribution   :      0.00000       0.00000       1.01490
                        -----------------------------------------
Total Dipole Moment    :      0.00000       0.00000       0.82949
                        -----------------------------------------
Magnitude (a.u.)       :      0.82949
Magnitude (Debye)      :      2.10841

Rotational constants in cm-1:     0.000000    15.110168    15.110168
Rotational constants in MHz :     0.000000 452991.437720 452991.437720

                             ****ORCA TERMINATED NORMALLY****
TOTAL RUN TIME: 0 days 0 hours 0 minutes 3 seconds 619 msec
