 Gaussian 16, Revision A.03,
 Gaussian 16:  ES64L-G16RevA.03 25-Dec-2016

 ------------------
 #p RHF/aug-cc-pVQZ
 ------------------

 ----------------------
 BH RHF at 1.1 Angstrom
 ----------------------
 Symbolic Z-matrix:
 Charge =  0 Multiplicity = 1

                         Standard orientation:
 ---------------------------------------------------------------------
 Center     Atomic      Atomic             Coordinates (Angstroms)
 Number     Number       Type             X           Y           Z
 ---------------------------------------------------------------------
      1          5           0        0.000000    0.000000    0.183333
      2          1           0        0.000000    0.000000   -0.916667
 ---------------------------------------------------------------------

 SCF Done:  E(RHF) =  -25.1245670999     A.U. after    8 cycles

 The electronic state is 1-SG.
 Alpha  occ. eigenvalues --   -7.66903  -0.68579  -0.34466
 Alpha virt. eigenvalues --    0.02451   0.02451   0.02962   0.04522   0.07950
 Alpha virt. eigenvalues --    0.07950   0.11451   0.13391   0.13391   0.14540
 Alpha virt. eigenvalues --    0.14540   0.14928   0.18429   0.27028   0.27379

 Mulliken charges:
               1
     1  B    0.074592
     2  H   -0.074592
 Sum of Mulliken charges =   0.00000

 Dipole moment (field-independent basis, Debye):
    X=              0.0000    Y=              0.0000    Z=             -2.1084  Tot=              2.1084
 Quadrupole moment (field-independent basis, Debye-Ang):
   XX=             -6.6616   YY=             -6.6616   ZZ=            -10.4796
   XY=              0.0000   XZ=              0.0000   YZ=              0.0000

 Normal termination of Gaussian 16 at Sat May 21 17:37:58 2022.
