                         Program Version 5.0.0 -  RELEASE  -
|  1> ! RHF aug-cc-pVQZ pal8 VeryTightSCF UseSym
|  2>
|  3> *xyz 0 1
|  4>  B	0.0	0.0	0.0
|  5>  H	1.0	0.0	0.0
|  6> **                         ****END OF INPUT****

CARTESIAN COORDINATES (ANGSTROEM)
---------------------------------
  B      0.000000    0.000000   -0.085294
  H      0.000000    0.000000    0.914706

 Total Charge           Charge          ....    0
 Multiplicity           Mult            ....    1
 Number of Electrons    NEL             ....    6
 Basis Dimension        Dim             ....  126

ORBITAL ENERGIES
----------------

  NO   OCC          E(Eh)            E(eV)    Irrep
   0   2.0000      -7.657473      -208.3704    1-A1
   1   2.0000      -0.716350       -19.4929    2-A1
   2   2.0000      -0.342131        -9.3099    3-A1
   3   0.0000       0.024708         0.6723    1-B1
   4   0.0000       0.024708         0.6723    1-B2
   5   0.0000       0.028642         0.7794    4-A1
   6   0.0000       0.044884         1.2214    5-A1
   7   0.0000       0.079668         2.1679    2-B1

MULLIKEN ATOMIC CHARGES
-----------------------
   0 B :    0.026696
   1 H :   -0.026696
Sum of atomic charges:   -0.0000000

LOEWDIN ATOMIC CHARGES
----------------------
   0 B :    0.608962
   1 H :   -0.608962

  Mayer bond orders larger than 0.100000
B(  0-B ,  1-H ) :   0.8230

FINAL SINGLE POINT ENERGY       -25.103665467923

DIPOLE MOMENT
-------------
                                X             Y             Z
Electronic contribution:     -0.00000       0.00000      -0.00358
Nuclear contribution   :      0.00000       0.00000       0.92264
                        -----------------------------------------
Total Dipole Moment    :     -0.00000       0.00000       0.91905
                        -----------------------------------------
Magnitude (a.u.)       :      0.91905
Magnitude (Debye)      :      2.33605

Rotational constants in cm-1:     0.000000    18.283303    18.283303
Rotational constants in MHz :     0.000000 548119.639641 548119.639641

                             ****ORCA TERMINATED NORMALLY****
TOTAL RUN TIME: 0 days 0 hours 0 minutes 3 seconds 649 msec
