 Gaussian 16, Revision A.03,
 Gaussian 16:  ES64L-G16RevA.03 25-Dec-2016

 ------------------
 #p RHF/aug-cc-pVQZ
 ------------------

 ----------------------
 BH RHF at 1.0 Angstrom
 ----------------------
 Symbolic Z-matrix:
 Charge =  0 Multiplicity = 1

                         Standard orientation:
 ---------------------------------------------------------------------
 Center     Atomic      Atomic             Coordinates (Angstroms)
 Number     Number       Type             X           Y           Z
 ---------------------------------------------------------------------
      1          5           0        0.000000    0.000000    0.166667
      2          1           0        0.000000    0.000000   -0.833333
 ---------------------------------------------------------------------

 SCF Done:  E(RHF) =  -25.1036652580     A.U. after    9 cycles

 The electronic state is 1-SG.
 Alpha  occ. eigenvalues --   -7.65747  -0.71635  -0.34213
 Alpha virt. eigenvalues --    0.02471   0.02471   0.02864   0.04488   0.07967
 Alpha virt. eigenvalues --    0.07967   0.11720   0.13285   0.13285   0.14540
 Alpha virt. eigenvalues --    0.14540   0.14707   0.18060   0.27312   0.27312

 Mulliken charges:
               1
     1  B    0.026809
     2  H   -0.026809
 Sum of Mulliken charges =  -0.00000

 Dipole moment (field-independent basis, Debye):
    X=              0.0000    Y=              0.0000    Z=             -2.3360  Tot=              2.3360
 Quadrupole moment (field-independent basis, Debye-Ang):
   XX=             -6.5992   YY=             -6.5992   ZZ=            -10.3091
   XY=              0.0000   XZ=              0.0000   YZ=              0.0000

 Normal termination of Gaussian 16 at Sat May 21 17:39:58 2022.
