                         Program Version 5.0.0 -  RELEASE  -
|  1> ! RHF aug-cc-pVQZ pal8 VeryTightSCF UseSym
|  2>
|  3> *xyz 0 1
|  4>  B	0.0	0.0	0.0
|  5>  H	1.6	0.0	0.0
|  6> **                         ****END OF INPUT****

CARTESIAN COORDINATES (ANGSTROEM)
---------------------------------
  B      0.000000    0.000000   -0.136470
  H      0.000000    0.000000    1.463530

 Total Charge           Charge          ....    0
 Multiplicity           Mult            ....    1
 Number of Electrons    NEL             ....    6
 Basis Dimension        Dim             ....  126

ORBITAL ENERGIES
----------------

  NO   OCC          E(Eh)            E(eV)    Irrep
   0   2.0000      -7.732940      -210.4240    1-A1
   1   2.0000      -0.578761       -15.7489    2-A1
   2   2.0000      -0.352540        -9.5931    3-A1
   3   0.0000       0.020419         0.5556    1-B1
   4   0.0000       0.020419         0.5556    1-B2
   5   0.0000       0.032662         0.8888    4-A1
   6   0.0000       0.047918         1.3039    5-A1
   7   0.0000       0.073640         2.0039    2-B2

MULLIKEN ATOMIC CHARGES
-----------------------
   0 B :    0.164062
   1 H :   -0.164062
Sum of atomic charges:    0.0000000

LOEWDIN ATOMIC CHARGES
----------------------
   0 B :    0.362269
   1 H :   -0.362269

  Mayer bond orders larger than 0.100000
B(  0-B ,  1-H ) :   0.9638

FINAL SINGLE POINT ENERGY       -25.099848468781

DIPOLE MOMENT
-------------
                                X             Y             Z
Electronic contribution:      0.00000       0.00000      -1.31311
Nuclear contribution   :      0.00000       0.00000       1.47622
                        -----------------------------------------
Total Dipole Moment    :      0.00000       0.00000       0.16311
                        -----------------------------------------
Magnitude (a.u.)       :      0.16311
Magnitude (Debye)      :      0.41458

Rotational constants in cm-1:     0.000000     7.141915     7.141915
Rotational constants in MHz :     0.000000 214109.234235 214109.234235

                             ****ORCA TERMINATED NORMALLY****
TOTAL RUN TIME: 0 days 0 hours 0 minutes 3 seconds 516 msec
