                         Program Version 5.0.0 -  RELEASE  -
|  1> ! RHF aug-cc-pVQZ pal8 VeryTightSCF UseSym
|  2>
|  3> *xyz 0 1
|  4>  B	0.0	0.0	0.0
|  5>  H	1.3	0.0	0.0
|  6> **                         ****END OF INPUT****

CARTESIAN COORDINATES (ANGSTROEM)
---------------------------------
  B      0.000000    0.000000   -0.110882
  H      0.000000    0.000000    1.189118

 Total Charge           Charge          ....    0
 Multiplicity           Mult            ....    1
 Number of Electrons    NEL             ....    6
 Basis Dimension        Dim             ....  126

ORBITAL ENERGIES
----------------

  NO   OCC          E(Eh)            E(eV)    Irrep
   0   2.0000      -7.694649      -209.3821    1-A1
   1   2.0000      -0.632546       -17.2125    2-A1
   2   2.0000      -0.349987        -9.5236    3-A1
   3   0.0000       0.023613         0.6425    1-B2
   4   0.0000       0.023613         0.6425    1-B1
   5   0.0000       0.031441         0.8556    4-A1
   6   0.0000       0.045877         1.2484    5-A1
   7   0.0000       0.078071         2.1244    2-B1

MULLIKEN ATOMIC CHARGES
-----------------------
   0 B :    0.134756
   1 H :   -0.134756
Sum of atomic charges:   -0.0000000

LOEWDIN ATOMIC CHARGES
----------------------
   0 B :    0.466093
   1 H :   -0.466093

  Mayer bond orders larger than 0.100000
B(  0-B ,  1-H ) :   0.9049

FINAL SINGLE POINT ENERGY       -25.129262225043

DIPOLE MOMENT
-------------
                                X             Y             Z
Electronic contribution:      0.00000      -0.00000      -0.59849
Nuclear contribution   :      0.00000       0.00000       1.19943
                        -----------------------------------------
Total Dipole Moment    :      0.00000      -0.00000       0.60094
                        -----------------------------------------
Magnitude (a.u.)       :      0.60094
Magnitude (Debye)      :      1.52747

Rotational constants in cm-1:     0.000000    10.818523    10.818523
Rotational constants in MHz :     0.000000 324331.147717 324331.147717

                             ****ORCA TERMINATED NORMALLY****
TOTAL RUN TIME: 0 days 0 hours 0 minutes 3 seconds 493 msec
