                         Program Version 5.0.0 -  RELEASE  -
|  1> ! RHF aug-cc-pVQZ pal8 VeryTightSCF UseSym
|  2>
|  3> *xyz 0 1
|  4>  B	0.0	0.0	0.0
|  5>  H	2.8	0.0	0.0
|  6> **                         ****END OF INPUT****

CARTESIAN COORDINATES (ANGSTROEM)
---------------------------------
  B      0.000000    0.000000   -0.238822
  H      0.000000    0.000000    2.561178

 Total Charge           Charge          ....    0
 Multiplicity           Mult            ....    1
 Number of Electrons    NEL             ....    6
 Basis Dimension        Dim             ....  126

ORBITAL ENERGIES
----------------

  NO   OCC          E(Eh)            E(eV)    Irrep
   0   2.0000      -7.845203      -213.4788    1-A1
   1   2.0000      -0.582462       -15.8496    2-A1
   2   2.0000      -0.284990        -7.7550    3-A1
   3   0.0000      -0.014756        -0.4015    1-B1
   4   0.0000      -0.014756        -0.4015    1-B2
   5   0.0000      -0.008442        -0.2297    4-A1
   6   0.0000       0.036503         0.9933    5-A1
   7   0.0000       0.053387         1.4527    2-B2

MULLIKEN ATOMIC CHARGES
-----------------------
   0 B :    0.274884
   1 H :   -0.274884
Sum of atomic charges:    0.0000000

LOEWDIN ATOMIC CHARGES
----------------------
   0 B :    0.220184
   1 H :   -0.220184

  Mayer bond orders larger than 0.100000
B(  0-B ,  1-H ) :   0.9316

FINAL SINGLE POINT ENERGY       -24.969958519350

DIPOLE MOMENT
-------------
                                X             Y             Z
Electronic contribution:     -0.00000       0.00000      -4.35535
Nuclear contribution   :      0.00000       0.00000       2.58338
                        -----------------------------------------
Total Dipole Moment    :     -0.00000       0.00000      -1.77196
                        -----------------------------------------
Magnitude (a.u.)       :      1.77196
Magnitude (Debye)      :      4.50397

Rotational constants in cm-1:     0.000000     2.332054     2.332054
Rotational constants in MHz :     0.000000 69913.219342 69913.219342

                             ****ORCA TERMINATED NORMALLY****
TOTAL RUN TIME: 0 days 0 hours 0 minutes 3 seconds 715 msec
