                         Program Version 5.0.0 -  RELEASE  -
|  1> ! RHF aug-cc-pVQZ pal8 VeryTightSCF UseSym
|  2>
|  3> *xyz 0 1
|  4>  B	0.0	0.0	0.0
|  5>  H	2.0	0.0	0.0
|  6> **                         ****END OF INPUT****

CARTESIAN COORDINATES (ANGSTROEM)
---------------------------------
  B      0.000000    0.000000   -0.170587
  H      0.000000    0.000000    1.829413

 Total Charge           Charge          ....    0
 Multiplicity           Mult            ....    1
 Number of Electrons    NEL             ....    6
 Basis Dimension        Dim             ....  126

ORBITAL ENERGIES
----------------

  NO   OCC          E(Eh)            E(eV)    Irrep
   0   2.0000      -7.778783      -211.6715    1-A1
   1   2.0000      -0.556279       -15.1371    2-A1
   2   2.0000      -0.336821        -9.1654    3-A1
   3   0.0000       0.011760         0.3200    1-B2
   4   0.0000       0.011760         0.3200    1-B1
   5   0.0000       0.029294         0.7971    4-A1
   6   0.0000       0.052963         1.4412    5-A1
   7   0.0000       0.065773         1.7898    2-B1

MULLIKEN ATOMIC CHARGES
-----------------------
   0 B :    0.179269
   1 H :   -0.179269
Sum of atomic charges:    0.0000000

LOEWDIN ATOMIC CHARGES
----------------------
   0 B :    0.272798
   1 H :   -0.272798

  Mayer bond orders larger than 0.100000
B(  0-B ,  1-H ) :   0.9788

FINAL SINGLE POINT ENERGY       -25.049397233070

DIPOLE MOMENT
-------------
                                X             Y             Z
Electronic contribution:      0.00000       0.00000      -2.35196
Nuclear contribution   :      0.00000       0.00000       1.84527
                        -----------------------------------------
Total Dipole Moment    :      0.00000       0.00000      -0.50669
                        -----------------------------------------
Magnitude (a.u.)       :      0.50669
Magnitude (Debye)      :      1.28790

Rotational constants in cm-1:     0.000000     4.570826     4.570826
Rotational constants in MHz :     0.000000 137029.909910 137029.909910

                             ****ORCA TERMINATED NORMALLY****
TOTAL RUN TIME: 0 days 0 hours 0 minutes 3 seconds 510 msec
