                         Program Version 5.0.0 -  RELEASE  -
|  1> ! RHF aug-cc-pVQZ pal8 VeryTightSCF UseSym
|  2>
|  3> *xyz 0 1
|  4>  B	0.0	0.0	0.0
|  5>  H	3.6	0.0	0.0
|  6> **                         ****END OF INPUT****

CARTESIAN COORDINATES (ANGSTROEM)
---------------------------------
  B      0.000000    0.000000   -0.307057
  H      0.000000    0.000000    3.292943

 Total Charge           Charge          ....    0
 Multiplicity           Mult            ....    1
 Number of Electrons    NEL             ....    6
 Basis Dimension        Dim             ....  126

ORBITAL ENERGIES
----------------

  NO   OCC          E(Eh)            E(eV)    Irrep
   0   2.0000      -7.879659      -214.4164    1-A1
   1   2.0000      -0.610070       -16.6008    2-A1
   2   2.0000      -0.249913        -6.8005    3-A1
   3   0.0000      -0.054714        -1.4889    4-A1
   4   0.0000      -0.037027        -1.0076    1-B2
   5   0.0000      -0.037027        -1.0076    1-B1
   6   0.0000       0.026720         0.7271    5-A1
   7   0.0000       0.046147         1.2557    2-B1

MULLIKEN ATOMIC CHARGES
-----------------------
   0 B :    0.365594
   1 H :   -0.365594
Sum of atomic charges:   -0.0000000

LOEWDIN ATOMIC CHARGES
----------------------
   0 B :    0.281848
   1 H :   -0.281848

  Mayer bond orders larger than 0.100000
B(  0-B ,  1-H ) :   0.8694

FINAL SINGLE POINT ENERGY       -24.920330907939

DIPOLE MOMENT
-------------
                                X             Y             Z
Electronic contribution:      0.00000      -0.00000      -6.09552
Nuclear contribution   :      0.00000       0.00000       3.32149
                        -----------------------------------------
Total Dipole Moment    :      0.00000      -0.00000      -2.77403
                        -----------------------------------------
Magnitude (a.u.)       :      2.77403
Magnitude (Debye)      :      7.05101

Rotational constants in cm-1:     0.000000     1.410749     1.410749
Rotational constants in MHz :     0.000000 42293.182071 42293.182071

                             ****ORCA TERMINATED NORMALLY****
TOTAL RUN TIME: 0 days 0 hours 0 minutes 3 seconds 638 msec
