                         Program Version 5.0.0 -  RELEASE  -
|  1> ! RHF aug-cc-pVQZ pal8 VeryTightSCF UseSym
|  2>
|  3> *xyz 0 1
|  4>  B	0.0	0.0	0.0
|  5>  H	3.8	0.0	0.0
|  6> **                         ****END OF INPUT****

CARTESIAN COORDINATES (ANGSTROEM)
---------------------------------
  B      0.000000    0.000000   -0.324116
  H      0.000000    0.000000    3.475884

 Total Charge           Charge          ....    0
 Multiplicity           Mult            ....    1
 Number of Electrons    NEL             ....    6
 Basis Dimension        Dim             ....  126

ORBITAL ENERGIES
----------------

  NO   OCC          E(Eh)            E(eV)    Irrep
   0   2.0000      -7.884552      -214.5496    1-A1
   1   2.0000      -0.614776       -16.7289    2-A1
   2   2.0000      -0.243619        -6.6292    3-A1
   3   0.0000      -0.063143        -1.7182    4-A1
   4   0.0000      -0.041017        -1.1161    1-B2
   5   0.0000      -0.041017        -1.1161    1-B1
   6   0.0000       0.025240         0.6868    5-A1
   7   0.0000       0.044793         1.2189    2-B2

MULLIKEN ATOMIC CHARGES
-----------------------
   0 B :    0.376944
   1 H :   -0.376944
Sum of atomic charges:   -0.0000000

LOEWDIN ATOMIC CHARGES
----------------------
   0 B :    0.300500
   1 H :   -0.300500

  Mayer bond orders larger than 0.100000
B(  0-B ,  1-H ) :   0.8599

FINAL SINGLE POINT ENERGY       -24.911281293090

DIPOLE MOMENT
-------------
                                X             Y             Z
Electronic contribution:      0.00000       0.00000      -6.49167
Nuclear contribution   :      0.00000       0.00000       3.50602
                        -----------------------------------------
Total Dipole Moment    :      0.00000       0.00000      -2.98565
                        -----------------------------------------
Magnitude (a.u.)       :      2.98565
Magnitude (Debye)      :      7.58891

Rotational constants in cm-1:     0.000000     1.266157     1.266157
Rotational constants in MHz :     0.000000 37958.423798 37958.423798

                             ****ORCA TERMINATED NORMALLY****
TOTAL RUN TIME: 0 days 0 hours 0 minutes 3 seconds 608 msec
