 Gaussian 16, Revision A.03,
 Gaussian 16:  ES64L-G16RevA.03 25-Dec-2016

 ------------------
 #p RHF/aug-cc-pVQZ
 ------------------

 ----------------------
 BH RHF at 4.4 Angstrom
 ----------------------
 Symbolic Z-matrix:
 Charge =  0 Multiplicity = 1

                         Standard orientation:
 ---------------------------------------------------------------------
 Center     Atomic      Atomic             Coordinates (Angstroms)
 Number     Number       Type             X           Y           Z
 ---------------------------------------------------------------------
      1          5           0        0.000000    0.000000    0.733333
      2          1           0        0.000000    0.000000   -3.666667
 ---------------------------------------------------------------------

 SCF Done:  E(RHF) =  -24.8898756887     A.U. after   16 cycles

 The electronic state is 1-SG.
 Alpha  occ. eigenvalues --   -7.89333  -0.62448  -0.22873
 Alpha virt. eigenvalues --   -0.08271  -0.04965  -0.04965   0.02191   0.04145
 Alpha virt. eigenvalues --    0.04145   0.06034   0.09906   0.11741   0.11741
 Alpha virt. eigenvalues --    0.12540   0.12540   0.15200   0.23588   0.24143

 Mulliken charges:
               1
     1  B    0.398636
     2  H   -0.398636
 Sum of Mulliken charges =  -0.00000

 Dipole moment (field-independent basis, Debye):
    X=              0.0000    Y=              0.0000    Z=              9.0138  Tot=              9.0138
 Quadrupole moment (field-independent basis, Debye-Ang):
   XX=             -9.2348   YY=             -9.2348   ZZ=            -33.8721
   XY=              0.0000   XZ=              0.0000   YZ=              0.0000

 Normal termination of Gaussian 16 at Sat May 21 17:46:56 2022.
