                         Program Version 5.0.0 -  RELEASE  -
|  1> ! RHF aug-cc-pVQZ pal8 VeryTightSCF UseSym
|  2>
|  3> *xyz 0 1
|  4>  B	0.0	0.0	0.0
|  5>  H	4.0	0.0	0.0
|  6> **                         ****END OF INPUT****

CARTESIAN COORDINATES (ANGSTROEM)
---------------------------------
  B      0.000000    0.000000   -0.341174
  H      0.000000    0.000000    3.658826

 Total Charge           Charge          ....    0
 Multiplicity           Mult            ....    1
 Number of Electrons    NEL             ....    6
 Basis Dimension        Dim             ....  126

ORBITAL ENERGIES
----------------

  NO   OCC          E(Eh)            E(eV)    Irrep
   0   2.0000      -7.888348      -214.6529    1-A1
   1   2.0000      -0.618687       -16.8353    2-A1
   2   2.0000      -0.238059        -6.4779    3-A1
   3   0.0000      -0.070533        -1.9193    4-A1
   4   0.0000      -0.044413        -1.2085    1-B1
   5   0.0000      -0.044413        -1.2085    1-B2
   6   0.0000       0.023968         0.6522    5-A1
   7   0.0000       0.043570         1.1856    2-B1

MULLIKEN ATOMIC CHARGES
-----------------------
   0 B :    0.385858
   1 H :   -0.385858
Sum of atomic charges:   -0.0000000

LOEWDIN ATOMIC CHARGES
----------------------
   0 B :    0.317917
   1 H :   -0.317917

  Mayer bond orders larger than 0.100000
B(  0-B ,  1-H ) :   0.8523

FINAL SINGLE POINT ENERGY       -24.903270145185

DIPOLE MOMENT
-------------
                                X             Y             Z
Electronic contribution:      0.00000       0.00000      -6.87454
Nuclear contribution   :      0.00000       0.00000       3.69055
                        -----------------------------------------
Total Dipole Moment    :      0.00000       0.00000      -3.18400
                        -----------------------------------------
Magnitude (a.u.)       :      3.18400
Magnitude (Debye)      :      8.09308

Rotational constants in cm-1:     0.000000     1.142706     1.142706
Rotational constants in MHz :     0.000000 34257.477478 34257.477478

                             ****ORCA TERMINATED NORMALLY****
TOTAL RUN TIME: 0 days 0 hours 0 minutes 3 seconds 572 msec
