                         Program Version 5.0.0 -  RELEASE  -
|  1> ! RHF aug-cc-pVQZ pal8 VeryTightSCF UseSym
|  2>
|  3> *xyz 0 1
|  4>  B	0.0	0.0	0.0
|  5>  H	4.4	0.0	0.0
|  6> **                         ****END OF INPUT****

CARTESIAN COORDINATES (ANGSTROEM)
---------------------------------
  B      0.000000    0.000000   -0.375292
  H      0.000000    0.000000    4.024708

 Total Charge           Charge          ....    0
 Multiplicity           Mult            ....    1
 Number of Electrons    NEL             ....    6
 Basis Dimension        Dim             ....  126

ORBITAL ENERGIES
----------------

  NO   OCC          E(Eh)            E(eV)    Irrep
   0   2.0000      -7.893333      -214.7885    1-A1
   1   2.0000      -0.624478       -16.9929    2-A1
   2   2.0000      -0.228734        -6.2242    3-A1
   3   0.0000      -0.082715        -2.2508    4-A1
   4   0.0000      -0.049648        -1.3510    1-B1
   5   0.0000      -0.049648        -1.3510    1-B2
   6   0.0000       0.021914         0.5963    5-A1
   7   0.0000       0.041454         1.1280    2-B1

MULLIKEN ATOMIC CHARGES
-----------------------
   0 B :    0.398636
   1 H :   -0.398636
Sum of atomic charges:   -0.0000000

LOEWDIN ATOMIC CHARGES
----------------------
   0 B :    0.347338
   1 H :   -0.347338

  Mayer bond orders larger than 0.100000
B(  0-B ,  1-H ) :   0.8415

FINAL SINGLE POINT ENERGY       -24.889875861422

DIPOLE MOMENT
-------------
                                X             Y             Z
Electronic contribution:     -0.00000      -0.00000      -7.60591
Nuclear contribution   :      0.00000       0.00000       4.05960
                        -----------------------------------------
Total Dipole Moment    :     -0.00000      -0.00000      -3.54631
                        -----------------------------------------
Magnitude (a.u.)       :      3.54631
Magnitude (Debye)      :      9.01400

Rotational constants in cm-1:     0.000000     0.944385     0.944385
Rotational constants in MHz :     0.000000 28311.964858 28311.964858

                             ****ORCA TERMINATED NORMALLY****
TOTAL RUN TIME: 0 days 0 hours 0 minutes 3 seconds 457 msec
