 Gaussian 16, Revision A.03,
 Gaussian 16:  ES64L-G16RevA.03 25-Dec-2016

 ------------------
 #p RHF/aug-cc-pVQZ
 ------------------

 ----------------------
 BH RHF at 4.8 Angstrom
 ----------------------
 Symbolic Z-matrix:
 Charge =  0 Multiplicity = 1

                         Standard orientation:
 ---------------------------------------------------------------------
 Center     Atomic      Atomic             Coordinates (Angstroms)
 Number     Number       Type             X           Y           Z
 ---------------------------------------------------------------------
      1          5           0        0.000000    0.000000    0.800000
      2          1           0        0.000000    0.000000   -4.000000
 ---------------------------------------------------------------------

 SCF Done:  E(RHF) =  -24.8793048489     A.U. after   17 cycles

 The electronic state is 1-SG.
 Alpha  occ. eigenvalues --   -7.89581  -0.62817  -0.22127
 Alpha virt. eigenvalues --   -0.09217  -0.05323  -0.05323   0.02035   0.03969
 Alpha virt. eigenvalues --    0.03969   0.05705   0.10163   0.11454   0.11454
 Alpha virt. eigenvalues --    0.12221   0.12221   0.14577   0.22951   0.24055

 Mulliken charges:
               1
     1  B    0.406393
     2  H   -0.406393
 Sum of Mulliken charges =  -0.00000

 Dipole moment (field-independent basis, Debye):
    X=              0.0000    Y=              0.0000    Z=              9.8411  Tot=              9.8411
 Quadrupole moment (field-independent basis, Debye-Ang):
   XX=             -9.2916   YY=             -9.2916   ZZ=            -38.9523
   XY=              0.0000   XZ=              0.0000   YZ=              0.0000

 Normal termination of Gaussian 16 at Sat May 21 17:42:15 2022.
