 Gaussian 16, Revision A.03,
 Gaussian 16:  ES64L-G16RevA.03 25-Dec-2016

 ------------------
 #p RHF/aug-cc-pVQZ
 ------------------

 ----------------------
 BH RHF at 4.6 Angstrom
 ----------------------
 Symbolic Z-matrix:
 Charge =  0 Multiplicity = 1

                         Standard orientation:
 ---------------------------------------------------------------------
 Center     Atomic      Atomic             Coordinates (Angstroms)
 Number     Number       Type             X           Y           Z
 ---------------------------------------------------------------------
      1          5           0        0.000000    0.000000    0.766667
      2          1           0        0.000000    0.000000   -3.833333
 ---------------------------------------------------------------------

 SCF Done:  E(RHF) =  -24.8842824161     A.U. after   16 cycles

 The electronic state is 1-SG.
 Alpha  occ. eigenvalues --   -7.89482  -0.62654  -0.22480
 Alpha virt. eigenvalues --   -0.08773  -0.05161  -0.05161   0.02108   0.04054
 Alpha virt. eigenvalues --    0.04054   0.05868   0.10043   0.11592   0.11592
 Alpha virt. eigenvalues --    0.12380   0.12380   0.14899   0.23209   0.24100

 Mulliken charges:
               1
     1  B    0.403062
     2  H   -0.403062
 Sum of Mulliken charges =  -0.00000

 Dipole moment (field-independent basis, Debye):
    X=              0.0000    Y=              0.0000    Z=              9.4375  Tot=              9.4375
 Quadrupole moment (field-independent basis, Debye-Ang):
   XX=             -9.2680   YY=             -9.2680   ZZ=            -36.3685
   XY=              0.0000   XZ=              0.0000   YZ=              0.0000

 Normal termination of Gaussian 16 at Sat May 21 17:42:11 2022.
