                         Program Version 5.0.0 -  RELEASE  -
|  1> ! RHF aug-cc-pVQZ pal8 VeryTightSCF UseSym
|  2>
|  3> *xyz 0 1
|  4>  B	0.0	0.0	0.0
|  5>  H	5.6	0.0	0.0
|  6> **                         ****END OF INPUT****

CARTESIAN COORDINATES (ANGSTROEM)
---------------------------------
  B      0.000000    0.000000   -0.477644
  H      0.000000    0.000000    5.122356

 Total Charge           Charge          ....    0
 Multiplicity           Mult            ....    1
 Number of Electrons    NEL             ....    6
 Basis Dimension        Dim             ....  126

ORBITAL ENERGIES
----------------

  NO   OCC          E(Eh)            E(eV)    Irrep
   0   2.0000      -7.896678      -214.8795    1-A1
   1   2.0000      -0.631667       -17.1885    2-A1
   2   2.0000      -0.210165        -5.7189    3-A1
   3   0.0000      -0.105470        -2.8700    4-A1
   4   0.0000      -0.057186        -1.5561    1-B2
   5   0.0000      -0.057186        -1.5561    1-B1
   6   0.0000       0.018149         0.4938    5-A1
   7   0.0000       0.036896         1.0040    2-B2

MULLIKEN ATOMIC CHARGES
-----------------------
   0 B :    0.411307
   1 H :   -0.411307
Sum of atomic charges:    0.0000000

LOEWDIN ATOMIC CHARGES
----------------------
   0 B :    0.392216
   1 H :   -0.392216

  Mayer bond orders larger than 0.100000
B(  0-B ,  1-H ) :   0.8309

FINAL SINGLE POINT ENERGY       -24.864151115910

DIPOLE MOMENT
-------------
                                X             Y             Z
Electronic contribution:      0.00000      -0.00000      -9.61635
Nuclear contribution   :      0.00000       0.00000       5.16677
                        -----------------------------------------
Total Dipole Moment    :      0.00000      -0.00000      -4.44959
                        -----------------------------------------
Magnitude (a.u.)       :      4.44959
Magnitude (Debye)      :     11.30995

Rotational constants in cm-1:     0.000000     0.583013     0.583013
Rotational constants in MHz :     0.000000 17478.304836 17478.304836

                             ****ORCA TERMINATED NORMALLY****
TOTAL RUN TIME: 0 days 0 hours 0 minutes 3 seconds 252 msec
