                         Program Version 5.0.0 -  RELEASE  -
|  1> ! RHF aug-cc-pVQZ pal8 VeryTightSCF UseSym
|  2>
|  3> *xyz 0 1
|  4>  B	0.0	0.0	0.0
|  5>  H	5.4	0.0	0.0
|  6> **                         ****END OF INPUT****

CARTESIAN COORDINATES (ANGSTROEM)
---------------------------------
  B      0.000000    0.000000   -0.460586
  H      0.000000    0.000000    4.939414

 Total Charge           Charge          ....    0
 Multiplicity           Mult            ....    1
 Number of Electrons    NEL             ....    6
 Basis Dimension        Dim             ....  126

ORBITAL ENERGIES
----------------

  NO   OCC          E(Eh)            E(eV)    Irrep
   0   2.0000      -7.896784      -214.8824    1-A1
   1   2.0000      -0.631130       -17.1739    2-A1
   2   2.0000      -0.212563        -5.7841    3-A1
   3   0.0000      -0.102688        -2.7943    4-A1
   4   0.0000      -0.056485        -1.5370    1-B1
   5   0.0000      -0.056485        -1.5370    1-B2
   6   0.0000       0.018613         0.5065    5-A1
   7   0.0000       0.037529         1.0212    2-B2

MULLIKEN ATOMIC CHARGES
-----------------------
   0 B :    0.411087
   1 H :   -0.411087
Sum of atomic charges:    0.0000000

LOEWDIN ATOMIC CHARGES
----------------------
   0 B :    0.388409
   1 H :   -0.388409

  Mayer bond orders larger than 0.100000
B(  0-B ,  1-H ) :   0.8310

FINAL SINGLE POINT ENERGY       -24.867344451135

DIPOLE MOMENT
-------------
                                X             Y             Z
Electronic contribution:     -0.00000      -0.00000      -9.29411
Nuclear contribution   :      0.00000       0.00000       4.98224
                        -----------------------------------------
Total Dipole Moment    :     -0.00000      -0.00000      -4.31187
                        -----------------------------------------
Magnitude (a.u.)       :      4.31187
Magnitude (Debye)      :     10.95990

Rotational constants in cm-1:     0.000000     0.626999     0.626999
Rotational constants in MHz :     0.000000 18796.969809 18796.969809

                             ****ORCA TERMINATED NORMALLY****
TOTAL RUN TIME: 0 days 0 hours 0 minutes 3 seconds 248 msec
