                         Program Version 5.0.0 -  RELEASE  -
|  1> ! RKS B3LYP/G cc-pVTZ NoRI pal8
|  2>
|  3> *xyz 0 1
|  4>   C   -2.58160084178652      0.85828318402722      0.00080156853200
|  5>   C   -1.19423075211164      0.86536269424988      0.00098054343823
|  6>   C   -0.48184821662044      2.06241189554032      0.00026969425476
|  7>   C   -1.19416423453283      3.25950055784776     -0.00062846767782
|  8>   C   -2.58153392669185      3.26665691565461     -0.00081697160061
|  9>   C   -3.26678503079028      2.06248916662553      0.00011048883372
| 10>   H   -3.12770213250513     -0.07395399173453      0.00130680306569
| 11>   H   -0.65977525765669     -0.07535746059244      0.00163025822144
| 12>   H   -0.65965646486742      4.20019103552288     -0.00124317258025
| 13>   H   -3.12758341376550      4.19892427265791     -0.00156478051965
| 14>   C   1.01725661812022      2.06237059889130      0.00078164411047
| 15>   C   1.72979440054537      2.06154569389869     -1.19627740111421
| 16>   C   1.72939598080617      2.06315592590829      1.19791401450705
| 17>   C   3.11712542600413      2.06150240870885     -1.20321779640295
| 18>   H   1.19530943085168      2.06092784488391     -2.13697707431363
| 19>   C   3.11678391264014      2.06312227056329      1.20519298930278
| 20>   H   1.19468583944535      2.06380338066680      2.13849130201270
| 21>   C   3.80213032469577      2.06229337795585      0.00112229842861
| 22>   H   3.66351142389813      2.06086028564820     -2.13528741294019
| 23>   H   3.66287659702490      2.06373408667386      2.13743659617327
| 24>   Cl  -5.00747133311841      2.06253716373157     -0.00043793949156
| 25>   Cl  5.54284890041484      2.06224511267023      0.00136880576014
| 26> **                         ****END OF INPUT****

CARTESIAN COORDINATES (ANGSTROEM)
---------------------------------
  C     -2.581601    0.858283    0.000802
  C     -1.194231    0.865363    0.000981
  C     -0.481848    2.062412    0.000270
  C     -1.194164    3.259501   -0.000628
  C     -2.581534    3.266657   -0.000817
  C     -3.266785    2.062489    0.000110
  H     -3.127702   -0.073954    0.001307
  H     -0.659775   -0.075357    0.001630
  H     -0.659656    4.200191   -0.001243
  H     -3.127583    4.198924   -0.001565
  C      1.017257    2.062371    0.000782
  C      1.729794    2.061546   -1.196277
  C      1.729396    2.063156    1.197914
  C      3.117125    2.061502   -1.203218
  H      1.195309    2.060928   -2.136977
  C      3.116784    2.063122    1.205193
  H      1.194686    2.063803    2.138491
  C      3.802130    2.062293    0.001122
  H      3.663511    2.060860   -2.135287
  H      3.662877    2.063734    2.137437
  Cl    -5.007471    2.062537   -0.000438
  Cl     5.542849    2.062245    0.001369

 Total Charge           Charge          ....    0
 Multiplicity           Mult            ....    1
 Number of Electrons    NEL             ....  114
 Basis Dimension        Dim             ....  540

ORBITAL ENERGIES
----------------

  NO   OCC          E(Eh)            E(eV)
   0   2.0000    -101.565382     -2763.7346
   1   2.0000    -101.565379     -2763.7345
   2   2.0000     -10.246299      -278.8160
   3   2.0000     -10.246295      -278.8159
   4   2.0000     -10.203727      -277.6575
   5   2.0000     -10.203442      -277.6498
   6   2.0000     -10.196727      -277.4670
   7   2.0000     -10.196726      -277.4670
   8   2.0000     -10.196709      -277.4666
   9   2.0000     -10.196705      -277.4665
  10   2.0000     -10.195597      -277.4363
  11   2.0000     -10.195594      -277.4362
  12   2.0000     -10.195583      -277.4359
  13   2.0000     -10.195579      -277.4358
  14   2.0000      -9.471014      -257.7194
  15   2.0000      -9.471011      -257.7193
  16   2.0000      -7.233976      -196.8465
  17   2.0000      -7.233972      -196.8464
  18   2.0000      -7.225342      -196.6115
  19   2.0000      -7.225338      -196.6114
  20   2.0000      -7.224930      -196.6003
  21   2.0000      -7.224926      -196.6002
  22   2.0000      -0.907402       -24.6917
  23   2.0000      -0.901349       -24.5270
  24   2.0000      -0.863095       -23.4860
  25   2.0000      -0.839859       -22.8537
  26   2.0000      -0.773329       -21.0433
  27   2.0000      -0.770662       -20.9708
  28   2.0000      -0.770659       -20.9707
  29   2.0000      -0.720650       -19.6099
  30   2.0000      -0.633543       -17.2396
  31   2.0000      -0.633535       -17.2394
  32   2.0000      -0.626873       -17.0581
  33   2.0000      -0.594772       -16.1846
  34   2.0000      -0.546671       -14.8757
  35   2.0000      -0.506877       -13.7928
  36   2.0000      -0.488430       -13.2908
  37   2.0000      -0.488429       -13.2908
  38   2.0000      -0.478812       -13.0291
  39   2.0000      -0.466073       -12.6825
  40   2.0000      -0.443723       -12.0743
  41   2.0000      -0.443716       -12.0741
  42   2.0000      -0.439499       -11.9594
  43   2.0000      -0.408648       -11.1199
  44   2.0000      -0.408647       -11.1198
  45   2.0000      -0.401640       -10.9292
  46   2.0000      -0.374525       -10.1913
  47   2.0000      -0.374518       -10.1911
  48   2.0000      -0.360151        -9.8002
  49   2.0000      -0.341686        -9.2978
  50   2.0000      -0.341682        -9.2976
  51   2.0000      -0.320226        -8.7138
  52   2.0000      -0.320226        -8.7138
  53   2.0000      -0.280539        -7.6339
  54   2.0000      -0.274696        -7.4749
  55   2.0000      -0.256198        -6.9715
  56   2.0000      -0.256196        -6.9714
  57   0.0000      -0.041452        -1.1280
  58   0.0000      -0.028160        -0.7663
  59   0.0000      -0.028160        -0.7663
  60   0.0000      -0.019363        -0.5269
  61   0.0000       0.017392         0.4733

MULLIKEN ATOMIC CHARGES
-----------------------
   0 C :   -0.113167
   1 C :   -0.094479
   2 C :   -0.002226
   3 C :   -0.094477
   4 C :   -0.113178
   5 C :    0.069570
   6 H :    0.121945
   7 H :    0.112595
   8 H :    0.112594
   9 H :    0.121944
  10 C :   -0.002201
  11 C :   -0.094489
  12 C :   -0.094491
  13 C :   -0.113174
  14 H :    0.112595
  15 C :   -0.113182
  16 H :    0.112600
  17 C :    0.069598
  18 H :    0.121949
  19 H :    0.121946
  20 Cl:   -0.121127
  21 Cl:   -0.121146
Sum of atomic charges:   -0.0000000

LOEWDIN ATOMIC CHARGES
----------------------
   0 C :    0.016195
   1 C :    0.049509
   2 C :   -0.039667
   3 C :    0.049509
   4 C :    0.016195
   5 C :   -0.297906
   6 H :   -0.023999
   7 H :   -0.021102
   8 H :   -0.021102
   9 H :   -0.023999
  10 C :   -0.039649
  11 C :    0.049524
  12 C :    0.049497
  13 C :    0.016189
  14 H :   -0.021108
  15 C :    0.016189
  16 H :   -0.021100
  17 C :   -0.297872
  18 H :   -0.024001
  19 H :   -0.023999
  20 Cl:    0.296366
  21 Cl:    0.296332

  Mayer bond orders larger than 0.100000
B(  0-C ,  1-C ) :   1.3523 B(  0-C ,  5-C ) :   1.3304 B(  0-C ,  6-H ) :   0.9716
B(  1-C ,  2-C ) :   1.3484 B(  1-C ,  7-H ) :   0.9749 B(  2-C ,  3-C ) :   1.3484
B(  2-C , 10-C ) :   0.9885 B(  3-C ,  4-C ) :   1.3523 B(  3-C ,  8-H ) :   0.9749
B(  4-C ,  5-C ) :   1.3304 B(  4-C ,  9-H ) :   0.9716 B(  5-C , 20-Cl) :   1.0160
B( 10-C , 11-C ) :   1.3482 B( 10-C , 12-C ) :   1.3485 B( 11-C , 13-C ) :   1.3524
B( 11-C , 14-H ) :   0.9749 B( 12-C , 15-C ) :   1.3522 B( 12-C , 16-H ) :   0.9749
B( 13-C , 17-C ) :   1.3303 B( 13-C , 18-H ) :   0.9716 B( 15-C , 17-C ) :   1.3305
B( 15-C , 19-H ) :   0.9716 B( 17-C , 21-Cl) :   1.0160

FINAL SINGLE POINT ENERGY     -1382.726152674124

DIPOLE MOMENT
-------------
                                X             Y             Z
Electronic contribution:     -0.00019      -0.00000       0.00008
Nuclear contribution   :      0.00013       0.00000      -0.00010
                        -----------------------------------------
Total Dipole Moment    :     -0.00007      -0.00000      -0.00002
                        -----------------------------------------
Magnitude (a.u.)       :      0.00007
Magnitude (Debye)      :      0.00017

Rotational constants in cm-1:     0.096140     0.005779     0.005779
Rotational constants in MHz :  2882.207816   173.250355   173.250260

                             ****ORCA TERMINATED NORMALLY****
TOTAL RUN TIME: 0 days 0 hours 3 minutes 21 seconds 996 msec
