 Gaussian 16, Revision A.03,
 Gaussian 16:  ES64L-G16RevA.03 25-Dec-2016

 --------------------------------
 #p RHF/Def2TZVP stable guess=mix
 --------------------------------

 ------------
 [Fe(H2O)6]2+
 ------------
 Symbolic Z-matrix:
 Charge =  2 Multiplicity = 1

                         Standard orientation:
 ---------------------------------------------------------------------
 Center     Atomic      Atomic             Coordinates (Angstroms)
 Number     Number       Type             X           Y           Z
 ---------------------------------------------------------------------
      1         26           0        0.000065    0.000163   -0.000017
      2          8           0       -1.246719   -1.256779    0.948755
      3          1           0       -1.906773   -1.728539    0.406440
      4          8           0        1.248166    0.192856    1.561816
      5          1           0        0.978517    0.504619    2.444641
      6          8           0       -1.248574   -0.193244   -1.561244
      7          1           0       -0.979714   -0.505995   -2.443958
      8          8           0        1.247144    1.256732   -0.948912
      9          1           0        1.906411    1.729332   -0.406365
     10          8           0       -1.247341    1.449656    0.614407
     11          1           0       -1.905699    1.215874    1.295786
     12          8           0        1.247217   -1.449530   -0.614705
     13          1           0        1.906902   -1.215343   -1.294651
     14          1           0       -0.977458    2.370268    0.784533
     15          1           0        1.907641   -0.513331    1.698765
     16          1           0        0.977196   -2.369840   -0.786194
     17          1           0       -0.975734   -1.865439    1.659658
     18          1           0       -1.908858    0.512144   -1.698350
     19          1           0        0.976718    1.864477   -1.660803
 ---------------------------------------------------------------------

 SCF Done:  E(RHF) =  -1718.32553922     A.U. after   27 cycles

 The electronic state is 1-A.
 Alpha  occ. eigenvalues -- -261.62426 -32.18628 -27.66703 -27.66619 -27.66619
 Alpha  occ. eigenvalues --  -20.91185 -20.91185 -20.91184 -20.91184 -20.91184
 Alpha  occ. eigenvalues --  -20.91182  -4.41230  -2.99458  -2.99292  -2.99292
 Alpha  occ. eigenvalues --   -1.70999  -1.69892  -1.69445  -1.69444  -1.69238
 Alpha  occ. eigenvalues --   -1.69237  -1.07477  -1.06792  -1.06399  -1.06397
 Alpha  occ. eigenvalues --   -1.06027  -1.06024  -1.01122  -0.96546  -0.95712
 Alpha  occ. eigenvalues --   -0.95709  -0.95217  -0.95215  -0.88734  -0.88730
 Alpha  occ. eigenvalues --   -0.87931  -0.87174  -0.87173  -0.85338  -0.80625
 Alpha  occ. eigenvalues --   -0.80136  -0.80135
 Alpha virt. eigenvalues --   -0.19812  -0.14797  -0.14795  -0.13531  -0.11386
 Alpha virt. eigenvalues --   -0.11385  -0.07059  -0.07059  -0.06881  -0.06685
 Alpha virt. eigenvalues --   -0.05323  -0.05323   0.02215   0.02217   0.04443

 Mulliken charges:
               1
     1  Fe   1.077924
     2  O   -0.690259
     3  H    0.425217
     4  O   -0.690273
     5  H    0.418784
     6  O   -0.690422
     7  H    0.418790
     8  O   -0.690319
     9  H    0.425215
    10  O   -0.690265
    11  H    0.425193
    12  O   -0.690372
    13  H    0.425230
    14  H    0.418773
    15  H    0.425210
    16  H    0.418775
    17  H    0.418763
    18  H    0.425251
    19  H    0.418786
 Sum of Mulliken charges =   2.00000

 Dipole moment (field-independent basis, Debye):
    X=             -0.0011    Y=             -0.0013    Z=             -0.0019  Tot=              0.0026
 Quadrupole moment (field-independent basis, Debye-Ang):
   XX=            -22.9309   YY=            -15.2022   ZZ=            -15.2107
   XY=             -0.0016   XZ=              0.0124   YZ=              0.0059

 Normal termination of Gaussian 16 at Sat May 14 11:16:13 2022.
