 Gaussian 16, Revision A.03,
 Gaussian 16:  ES64L-G16RevA.03 25-Dec-2016

 --------------------
 # RHF/cc-pVTZ stable
 --------------------

 ------------
 [Fe(H2O)6]2+
 ------------
 Symbolic Z-matrix:
 Charge =  2 Multiplicity = 1

                         Standard orientation:
 ---------------------------------------------------------------------
 Center     Atomic      Atomic             Coordinates (Angstroms)
 Number     Number       Type             X           Y           Z
 ---------------------------------------------------------------------
      1         26           0        0.010146   -0.033639    0.027691
      2          8           0        1.539344   -0.374401   -0.898502
      3          8           0        0.867758    1.400282    0.749336
      4          8           0        0.602850   -1.139176    1.346361
      5          8           0       -1.499338    0.367194    0.962139
      6          8           0       -0.840449   -1.474176   -0.689069
      7          8           0       -0.658320    0.960583   -1.342373
      8          1           0       -2.268708    0.074824    0.467984
      9          1           0       -1.548508    1.316127    1.098919
     10          1           0       -0.448150   -1.687237   -1.538955
     11          1           0       -1.770828   -1.269781   -0.808302
     12          1           0        0.060569    1.412336   -1.790388
     13          1           0       -1.276624    1.608088   -0.995908
     14          1           0        1.321268   -0.800900   -1.730453
     15          1           0        1.998620    0.450457   -1.072501
     16          1           0        1.560364    1.692654    0.152330
     17          1           0        0.239897    2.113732    0.884901
     18          1           0        1.559343   -1.082512    1.405608
     19          1           0        0.214198   -0.875614    2.183669
 ---------------------------------------------------------------------

 SCF Done:  E(RHF) =  -1718.15743662     A.U. after   17 cycles

 The electronic state is 1-A.
 Alpha  occ. eigenvalues -- -261.58033 -32.15306 -27.63254 -27.63182 -27.63121
 Alpha  occ. eigenvalues --  -20.96822 -20.96733 -20.96451 -20.96430 -20.93054
 Alpha  occ. eigenvalues --  -20.89739  -4.39534  -2.98238  -2.98045  -2.97889
 Alpha  occ. eigenvalues --   -1.79802  -1.77192  -1.76733  -1.76412  -1.73659
 Alpha  occ. eigenvalues --   -1.70381  -1.18701  -1.15695  -1.14335  -1.12661
 Alpha  occ. eigenvalues --   -1.08977  -1.08512  -1.06443  -1.03901  -1.02261
 Alpha  occ. eigenvalues --   -1.00597  -0.99675  -0.98029  -0.95172  -0.93772
 Alpha  occ. eigenvalues --   -0.93013  -0.91572  -0.89556  -0.86760  -0.79512
 Alpha  occ. eigenvalues --   -0.78212  -0.77022
 Alpha virt. eigenvalues --   -0.26133  -0.21029  -0.19563  -0.17391  -0.15553
 Alpha virt. eigenvalues --   -0.13147  -0.11294  -0.10415  -0.08419  -0.07846
 Alpha virt. eigenvalues --   -0.06605  -0.04651  -0.04103  -0.02267  -0.00948

 Mulliken charges:
               1
     1  Fe   1.008072
     2  O   -0.345285
     3  O   -0.314563
     4  O   -0.352025
     5  O   -0.346881
     6  O   -0.300798
     7  O   -0.325478
     8  H    0.257519
     9  H    0.240059
    10  H    0.237911
    11  H    0.235524
    12  H    0.255053
    13  H    0.244269
    14  H    0.262783
    15  H    0.233999
    16  H    0.237786
    17  H    0.244204
    18  H    0.263996
    19  H    0.263854
 Sum of Mulliken charges =   2.00000

 Dipole moment (field-independent basis, Debye):
    X=             -0.6095    Y=              5.5758    Z=             -3.2278  Tot=              6.4714
 Quadrupole moment (field-independent basis, Debye-Ang):
   XX=            -21.7727   YY=            -27.1569   ZZ=            -27.3113
   XY=             -0.1783   XZ=             -2.8947   YZ=              2.2189

 Normal termination of Gaussian 16 at Sat May 14 12:06:59 2022.
