 Gaussian 16, Revision A.03,
 Gaussian 16:  ES64L-G16RevA.03 25-Dec-2016

 ----------------------
 # B3LYP/cc-pVTZ stable
 ----------------------

 ------------
 [Fe(H2O)6]2+
 ------------
 Symbolic Z-matrix:
 Charge =  2 Multiplicity = 1

                         Standard orientation:
 ---------------------------------------------------------------------
 Center     Atomic      Atomic             Coordinates (Angstroms)
 Number     Number       Type             X           Y           Z
 ---------------------------------------------------------------------
      1         26           0        0.010146   -0.033639    0.027691
      2          8           0        1.539344   -0.374401   -0.898502
      3          8           0        0.867758    1.400282    0.749336
      4          8           0        0.602850   -1.139176    1.346361
      5          8           0       -1.499338    0.367194    0.962139
      6          8           0       -0.840449   -1.474176   -0.689069
      7          8           0       -0.658320    0.960583   -1.342373
      8          1           0       -2.268708    0.074824    0.467984
      9          1           0       -1.548508    1.316127    1.098919
     10          1           0       -0.448150   -1.687237   -1.538955
     11          1           0       -1.770828   -1.269781   -0.808302
     12          1           0        0.060569    1.412336   -1.790388
     13          1           0       -1.276624    1.608088   -0.995908
     14          1           0        1.321268   -0.800900   -1.730453
     15          1           0        1.998620    0.450457   -1.072501
     16          1           0        1.560364    1.692654    0.152330
     17          1           0        0.239897    2.113732    0.884901
     18          1           0        1.559343   -1.082512    1.405608
     19          1           0        0.214198   -0.875614    2.183669
 ---------------------------------------------------------------------

 SCF Done:  E(RB3LYP) =  -1721.91806760     A.U. after   15 cycles

 The electronic state is 1-A.
 Alpha  occ. eigenvalues -- -256.32198 -30.27069 -26.13187 -26.13030 -26.12877
 Alpha  occ. eigenvalues --  -19.54393 -19.54360 -19.54330 -19.54294 -19.51282
 Alpha  occ. eigenvalues --  -19.48318  -3.71834  -2.49720  -2.49362  -2.49046
 Alpha  occ. eigenvalues --   -1.45697  -1.43546  -1.43072  -1.42864  -1.40477
 Alpha  occ. eigenvalues --   -1.37469  -0.99364  -0.96648  -0.95988  -0.94478
 Alpha  occ. eigenvalues --   -0.91351  -0.90290  -0.86782  -0.84416  -0.83206
 Alpha  occ. eigenvalues --   -0.81758  -0.81193  -0.78223  -0.77331  -0.74261
 Alpha  occ. eigenvalues --   -0.74133  -0.72755  -0.70648  -0.68190  -0.54735
 Alpha  occ. eigenvalues --   -0.53397  -0.52184
 Alpha virt. eigenvalues --   -0.38299  -0.33279  -0.31604  -0.29899  -0.29520
 Alpha virt. eigenvalues --   -0.28329  -0.27740  -0.24325  -0.22524  -0.21463
 Alpha virt. eigenvalues --   -0.19962  -0.19093  -0.17718  -0.16254  -0.14113

 Mulliken charges:
               1
     1  Fe   0.411828
     2  O   -0.214595
     3  O   -0.181826
     4  O   -0.208032
     5  O   -0.215972
     6  O   -0.165342
     7  O   -0.186995
     8  H    0.237628
     9  H    0.223042
    10  H    0.225013
    11  H    0.219715
    12  H    0.234007
    13  H    0.219044
    14  H    0.245498
    15  H    0.214794
    16  H    0.217538
    17  H    0.225464
    18  H    0.249048
    19  H    0.250142
 Sum of Mulliken charges =   2.00000

 Dipole moment (field-independent basis, Debye):
    X=             -0.5584    Y=              5.0317    Z=             -2.9308  Tot=              5.8497
 Quadrupole moment (field-independent basis, Debye-Ang):
   XX=            -22.5087   YY=            -27.7385   ZZ=            -27.6860
   XY=             -0.1860   XZ=             -2.7084   YZ=              2.1652

 Normal termination of Gaussian 16 at Sat May 14 12:01:55 2022.
