                         Program Version 5.0.0 -  RELEASE  -
|  1> ! RHF MP2 cc-pVTZ pal8
|  2> ! NoFrozenCore
|  3>
|  4> *xyz 0 1
|  5>   C   -0.84533195991773      0.95631204799741      0.86695688758137
|  6>   C   0.46296917953950      0.89055132107898      0.41153738968092
|  7>   C   1.06498249109929      2.05041746604826     -0.04872626223504
|  8>   C   0.38682375533153      3.25825741761093     -0.05957630313133
|  9>   C   -0.92916629483352      3.32496446678289      0.39786117470048
| 10>   C   -1.53691904595740      2.15806885302784      0.86178357772044
| 11>   H   -1.33177779310003      0.05786162666320      1.22288286662819
| 12>   H   1.00911644617855     -0.04137764481499      0.41174217012473
| 13>   H   0.89340943637666      4.14652768979640     -0.40661874558071
| 14>   H   -2.56260459262502      2.18503471734340      1.20271069002731
| 15>   C   -1.66709331376272      4.62322731007777      0.38662794093699
| 16>   C   -2.42161858132883      5.01473379007752      1.49250102782185
| 17>   C   -1.61923201631221      5.46623475990715     -0.72389685760276
| 18>   C   -3.10577169358506      6.21908872396761      1.47479389475736
| 19>   H   -2.46369194088787      4.39499072034369      2.37581764658229
| 20>   C   -2.30901947987771      6.66904435935388     -0.72694800403690
| 21>   H   -1.05555752795261      5.17208444276276     -1.59838613456934
| 22>   C   -3.05941590604282      7.05751618377553      0.37275066068088
| 23>   H   -2.26865845182014      7.30948735218955     -1.59800079723894
| 24>   H   -3.60007805771479      7.99261925989212      0.37887337421372
| 25>   Cl  2.70997882629083      1.99495162290832     -0.61716762133114
| 26>   Cl  -4.03387825909787      6.68923511320967      2.87110846426962
| 27> **                         ****END OF INPUT****

CARTESIAN COORDINATES (ANGSTROEM)
---------------------------------
  C     -0.845332    0.956312    0.866957
  C      0.462969    0.890551    0.411537
  C      1.064982    2.050417   -0.048726
  C      0.386824    3.258257   -0.059576
  C     -0.929166    3.324964    0.397861
  C     -1.536919    2.158069    0.861784
  H     -1.331778    0.057862    1.222883
  H      1.009116   -0.041378    0.411742
  H      0.893409    4.146528   -0.406619
  H     -2.562605    2.185035    1.202711
  C     -1.667093    4.623227    0.386628
  C     -2.421619    5.014734    1.492501
  C     -1.619232    5.466235   -0.723897
  C     -3.105772    6.219089    1.474794
  H     -2.463692    4.394991    2.375818
  C     -2.309019    6.669044   -0.726948
  H     -1.055558    5.172084   -1.598386
  C     -3.059416    7.057516    0.372751
  H     -2.268658    7.309487   -1.598001
  H     -3.600078    7.992619    0.378873
  Cl     2.709979    1.994952   -0.617168
  Cl    -4.033878    6.689235    2.871108

 Total Charge           Charge          ....    0
 Multiplicity           Mult            ....    1
 Number of Electrons    NEL             ....  114
 Basis Dimension        Dim             ....  540

ORBITAL ENERGIES
----------------

  NO   OCC          E(Eh)            E(eV)
   0   2.0000    -104.842224     -2852.9019
   1   2.0000    -104.842219     -2852.9018
   2   2.0000     -11.308175      -307.7111
   3   2.0000     -11.308174      -307.7111
   4   2.0000     -11.266097      -306.5661
   5   2.0000     -11.265387      -306.5468
   6   2.0000     -11.253041      -306.2108
   7   2.0000     -11.253038      -306.2107
   8   2.0000     -11.252637      -306.1998
   9   2.0000     -11.252634      -306.1997
  10   2.0000     -11.251447      -306.1674
  11   2.0000     -11.251445      -306.1674
  12   2.0000     -11.248026      -306.0743
  13   2.0000     -11.248023      -306.0743
  14   2.0000     -10.567263      -287.5498
  15   2.0000     -10.567258      -287.5497
  16   2.0000      -8.034151      -218.6204
  17   2.0000      -8.034145      -218.6202
  18   2.0000      -8.032251      -218.5687
  19   2.0000      -8.032246      -218.5685
  20   2.0000      -8.032229      -218.5681
  21   2.0000      -8.032224      -218.5679
  22   2.0000      -1.206809       -32.8389
  23   2.0000      -1.193418       -32.4746
  24   2.0000      -1.139939       -31.0193
  25   2.0000      -1.117794       -30.4167
  26   2.0000      -1.065694       -28.9990
  27   2.0000      -1.023714       -27.8567
  28   2.0000      -1.002457       -27.2782
  29   2.0000      -0.996373       -27.1127
  30   2.0000      -0.877843       -23.8873
  31   2.0000      -0.851736       -23.1769
  32   2.0000      -0.821450       -22.3528
  33   2.0000      -0.799991       -21.7689
  34   2.0000      -0.724496       -19.7145
  35   2.0000      -0.699842       -19.0437
  36   2.0000      -0.672978       -18.3127
  37   2.0000      -0.659735       -17.9523
  38   2.0000      -0.644314       -17.5327
  39   2.0000      -0.626362       -17.0442
  40   2.0000      -0.606412       -16.5013
  41   2.0000      -0.597049       -16.2465
  42   2.0000      -0.590681       -16.0732
  43   2.0000      -0.556978       -15.1561
  44   2.0000      -0.548459       -14.9243
  45   2.0000      -0.545677       -14.8486
  46   2.0000      -0.524162       -14.2632
  47   2.0000      -0.511164       -13.9095
  48   2.0000      -0.508096       -13.8260
  49   2.0000      -0.482466       -13.1286
  50   2.0000      -0.467738       -12.7278
  51   2.0000      -0.459978       -12.5166
  52   2.0000      -0.456287       -12.4162
  53   2.0000      -0.381779       -10.3887
  54   2.0000      -0.347193        -9.4476
  55   2.0000      -0.345845        -9.4109
  56   2.0000      -0.322942        -8.7877
  57   0.0000       0.080821         2.1993
  58   0.0000       0.107817         2.9338
  59   0.0000       0.107899         2.9361
  60   0.0000       0.135379         3.6838
  61   0.0000       0.142196         3.8693

MULLIKEN ATOMIC CHARGES
-----------------------
   0 C :   -0.112498
   1 C :   -0.196403
   2 C :    0.134444
   3 C :   -0.223064
   4 C :    0.079969
   5 C :   -0.197159
   6 H :    0.159884
   7 H :    0.171831
   8 H :    0.175196
   9 H :    0.163373
  10 C :    0.079966
  11 C :   -0.223046
  12 C :   -0.197169
  13 C :    0.134428
  14 H :    0.175187
  15 C :   -0.112494
  16 H :    0.163377
  17 C :   -0.196394
  18 H :    0.159879
  19 H :    0.171825
  20 Cl:   -0.155578
  21 Cl:   -0.155555
Sum of atomic charges:   -0.0000000

LOEWDIN ATOMIC CHARGES
----------------------
   0 C :    0.038442
   1 C :    0.012639
   2 C :   -0.284276
   3 C :    0.025023
   4 C :   -0.030553
   5 C :    0.042145
   6 H :   -0.019336
   7 H :   -0.021675
   8 H :   -0.020761
   9 H :   -0.021388
  10 C :   -0.030553
  11 C :    0.025015
  12 C :    0.042151
  13 C :   -0.284303
  14 H :   -0.020759
  15 C :    0.038436
  16 H :   -0.021389
  17 C :    0.012641
  18 H :   -0.019336
  19 H :   -0.021676
  20 Cl:    0.279740
  21 Cl:    0.279774

  Mayer bond orders larger than 0.100000
B(  0-C ,  1-C ) :   1.3589 B(  0-C ,  5-C ) :   1.3849 B(  0-C ,  6-H ) :   0.9734
B(  1-C ,  2-C ) :   1.3521 B(  1-C ,  7-H ) :   0.9680 B(  2-C ,  3-C ) :   1.3478
B(  2-C , 20-Cl) :   1.0225 B(  3-C ,  4-C ) :   1.3324 B(  3-C ,  8-H ) :   0.9644
B(  4-C ,  5-C ) :   1.3526 B(  4-C , 10-C ) :   1.0290 B(  5-C ,  9-H ) :   0.9711
B( 10-C , 11-C ) :   1.3324 B( 10-C , 12-C ) :   1.3526 B( 11-C , 13-C ) :   1.3478
B( 11-C , 14-H ) :   0.9644 B( 12-C , 15-C ) :   1.3848 B( 12-C , 16-H ) :   0.9711
B( 13-C , 17-C ) :   1.3521 B( 13-C , 21-Cl) :   1.0225 B( 15-C , 17-C ) :   1.3590
B( 15-C , 18-H ) :   0.9734 B( 17-C , 19-H ) :   0.9680

MP2 TOTAL ENERGY:    -1380.782119492 Eh
FINAL SINGLE POINT ENERGY     -1380.782119492373

DIPOLE MOMENT
-------------
                                X             Y             Z
Electronic contribution:      3.28263       1.89895       3.79129
Nuclear contribution   :     -3.59384      -2.07894      -4.15061
                        -----------------------------------------
Total Dipole Moment    :     -0.31121      -0.17998      -0.35932
                        -----------------------------------------
Magnitude (a.u.)       :      0.50829
Magnitude (Debye)      :      1.29196

Rotational constants in cm-1:     0.042977     0.007687     0.006936
Rotational constants in MHz :  1288.420402   230.438753   207.945622

                             ****ORCA TERMINATED NORMALLY****
TOTAL RUN TIME: 0 days 0 hours 5 minutes 18 seconds 524 msec
